 Gaussian 16, Revision A.03,
 Gaussian 16:  ES64L-G16RevA.03 25-Dec-2016

 -----------------------------
 # opt freq b3lyp/6-31g(2df,p)
 -----------------------------

 -------------------
 Title Card Required
 -------------------
 Symbolic Z-matrix:
 Charge =  0 Multiplicity = 2

 SCF Done:  E(UB3LYP) =  -596.103007534     A.U. after   29 cycles
 SCF Done:  E(UB3LYP) =  -596.176554493     A.U. after   20 cycles
 SCF Done:  E(UB3LYP) =  -596.263456152     A.U. after   19 cycles
 SCF Done:  E(UB3LYP) =  -596.311581011     A.U. after   19 cycles
 SCF Done:  E(UB3LYP) =  -596.328677069     A.U. after   17 cycles
 SCF Done:  E(UB3LYP) =  -596.339399918     A.U. after   18 cycles
 SCF Done:  E(UB3LYP) =  -596.347354280     A.U. after   17 cycles
 SCF Done:  E(UB3LYP) =  -596.282841153     A.U. after   20 cycles
 SCF Done:  E(UB3LYP) =  -596.355700933     A.U. after   19 cycles
 SCF Done:  E(UB3LYP) =  -596.362029388     A.U. after   17 cycles
 SCF Done:  E(UB3LYP) =  -596.390747495     A.U. after   20 cycles
 SCF Done:  E(UB3LYP) =  -596.391868479     A.U. after   16 cycles
 SCF Done:  E(UB3LYP) =  -596.392071583     A.U. after   16 cycles
 SCF Done:  E(UB3LYP) =  -596.392110958     A.U. after   15 cycles
 SCF Done:  E(UB3LYP) =  -596.392130466     A.U. after   14 cycles
 SCF Done:  E(UB3LYP) =  -596.392139317     A.U. after   14 cycles
 SCF Done:  E(UB3LYP) =  -596.392141160     A.U. after   11 cycles
 SCF Done:  E(UB3LYP) =  -596.392141990     A.U. after    8 cycles
 SCF Done:  E(UB3LYP) =  -596.392142315     A.U. after    9 cycles
 Optimization completed.
    -- Stationary point found.
 Normal termination of Gaussian 16 at Fri May 19 11:38:14 2023.

 ----------------------------------------------------------------------
 #N Geom=AllCheck Guess=TCheck SCRF=Check GenChk UB3LYP/6-31G(2df,p) Fr
 eq
 ----------------------------------------------------------------------

 Structure from the checkpoint file:  "[C]1dCCdCCdCC2dCC2dCCdCCNC1.chk"
 -------------------
 Title Card Required
 -------------------
 Charge =  0 Multiplicity = 2

                         Standard orientation:
 ---------------------------------------------------------------------
 Center     Atomic      Atomic             Coordinates (Angstroms)
 Number     Number       Type             X           Y           Z
 ---------------------------------------------------------------------
      1          6           0       -2.447187   -1.815779    0.587753
      2          6           0       -1.509907   -2.622413    0.097204
      3          6           0       -0.294944   -2.041652   -0.462086
      4          6           0        0.999723   -2.452375   -0.387640
      5          6           0        1.952087   -1.399555   -0.638116
      6          6           0        3.114707   -1.053206   -0.004517
      7          6           0        3.188352    0.355212    0.205715
      8          6           0        3.204991    1.377575    1.082639
      9          6           0        2.259647    1.446066    0.034176
     10          6           0        1.113380    1.735809   -0.625778
     11          6           0       -0.134195    2.224778   -0.086446
     12          6           0       -1.301432    1.931881   -0.700756
     13          6           0       -2.676405    1.879761   -0.109626
     14          7           0       -3.148273    0.470850   -0.141966
     15          6           0       -2.568267   -0.368023    0.913972
     16          1           0       -1.609299   -3.705206    0.165886
     17          1           0       -0.450119   -1.041005   -0.858165
     18          1           0        1.287272   -3.398733    0.062075
     19          1           0        1.515406   -0.601376   -1.223042
     20          1           0        3.690478   -1.729825    0.619275
     21          1           0        3.484534    1.679545    2.081017
     22          1           0        0.992757    1.221787   -1.576929
     23          1           0       -0.136224    2.652492    0.915861
     24          1           0       -1.250885    1.486983   -1.694611
     25          1           0       -3.393204    2.447127   -0.717758
     26          1           0       -2.688800    2.320592    0.902416
     27          1           0       -4.160477    0.442712   -0.091700
     28          1           0       -3.097879   -0.266036    1.878158
     29          1           0       -1.548958    0.006519    1.092317
 ---------------------------------------------------------------------

 SCF Done:  E(UB3LYP) =  -596.392142315     A.U. after    1 cycles

 The electronic state is 2-A.
 Alpha  occ. eigenvalues --  -14.31399 -10.22550 -10.22009 -10.21960 -10.20925
 Alpha  occ. eigenvalues --  -10.20835 -10.20791 -10.20564 -10.20501 -10.20249
 Alpha  occ. eigenvalues --  -10.20150 -10.19532 -10.17874 -10.16262 -10.16002
 Alpha  occ. eigenvalues --   -0.90948  -0.89914  -0.83346  -0.79794  -0.78434
 Alpha  occ. eigenvalues --   -0.74781  -0.72027  -0.68196  -0.63903  -0.61564
 Alpha  occ. eigenvalues --   -0.57307  -0.56441  -0.53979  -0.53940  -0.51455
 Alpha  occ. eigenvalues --   -0.49587  -0.48955  -0.47215  -0.45298  -0.43871
 Alpha  occ. eigenvalues --   -0.43277  -0.41419  -0.39943  -0.39298  -0.38677
 Alpha  occ. eigenvalues --   -0.38484  -0.37862  -0.36257  -0.34907  -0.33946
 Alpha  occ. eigenvalues --   -0.32564  -0.30994  -0.27911  -0.27556  -0.22545
 Alpha  occ. eigenvalues --   -0.22125  -0.21957  -0.16679
 Alpha virt. eigenvalues --   -0.07021  -0.00364   0.00649   0.03511   0.05673
 Alpha virt. eigenvalues --    0.07496   0.09749   0.10369   0.12427   0.13054
 Alpha virt. eigenvalues --    0.13449   0.13872   0.14351   0.15181   0.15879

  Beta  occ. eigenvalues --  -14.31383 -10.22531 -10.21996 -10.21972 -10.20885
  Beta  occ. eigenvalues --  -10.20825 -10.20496 -10.20368 -10.20288 -10.20194
  Beta  occ. eigenvalues --  -10.19662 -10.19244 -10.17869 -10.16276 -10.16010
  Beta  occ. eigenvalues --   -0.90960  -0.89752  -0.83094  -0.79002  -0.78414
  Beta  occ. eigenvalues --   -0.74138  -0.71940  -0.68003  -0.63539  -0.61171
  Beta  occ. eigenvalues --   -0.57258  -0.56360  -0.53978  -0.52938  -0.51248
  Beta  occ. eigenvalues --   -0.49212  -0.48850  -0.46847  -0.45180  -0.43365
  Beta  occ. eigenvalues --   -0.42864  -0.41256  -0.39448  -0.39105  -0.38467
  Beta  occ. eigenvalues --   -0.37894  -0.37788  -0.36140  -0.34871  -0.33913
  Beta  occ. eigenvalues --   -0.32481  -0.30997  -0.27756  -0.27396  -0.22354
  Beta  occ. eigenvalues --   -0.21721  -0.16680
  Beta virt. eigenvalues --   -0.06678  -0.06037   0.00035   0.00586   0.03548
  Beta virt. eigenvalues --    0.05965   0.07543   0.09789   0.10522   0.12409
  Beta virt. eigenvalues --    0.13148   0.13602   0.14009   0.14404   0.15303

 Mulliken charges and spin densities:
               1          2
     1  C    0.037943   1.004871
     2  C   -0.142465  -0.118847
     3  C   -0.034372   0.093331
     4  C   -0.151570  -0.039509
     5  C    0.002706   0.024812
     6  C   -0.259386  -0.027141
     7  C    0.181500   0.010979
     8  C   -0.317294  -0.023948
     9  C    0.277551   0.005458
    10  C   -0.306524  -0.009565
    11  C   -0.077705   0.003134
    12  C   -0.030750  -0.006186
    13  C   -0.238641   0.002510
    14  N   -0.292974   0.004116
    15  C   -0.224383  -0.011224
    16  H    0.107993   0.030496
    17  H    0.129542  -0.004062
    18  H    0.101838   0.001620
    19  H    0.109870  -0.000763
    20  H    0.105468   0.001024
    21  H    0.148267   0.000695
    22  H    0.082735   0.000475
    23  H    0.075306  -0.000085
    24  H    0.074705   0.000207
    25  H    0.100073   0.000952
    26  H    0.079881  -0.000309
    27  H    0.216555   0.000112
    28  H    0.103260   0.014090
    29  H    0.140870   0.042756
 Sum of Mulliken charges =  -0.00000   1.00000

 Dipole moment (field-independent basis, Debye):
    X=              0.0949    Y=             -1.1241    Z=              2.1248  Tot=              2.4057
 Quadrupole moment (field-independent basis, Debye-Ang):
   XX=            -81.7750   YY=            -88.2623   ZZ=            -86.9056
   XY=             -4.6544   XZ=              2.2733   YZ=              2.3793

  Exact polarizability: 250.694   2.392 185.022  15.165   8.420 107.121
 Approx polarizability: 464.748  15.214 310.842  44.729  29.614 192.774

                      1                      2                      3
                      A                      A                      A
 Frequencies --     75.1712                81.8394               106.2753
 Red. masses --      3.8109                 4.4661                 5.4929
 Frc consts  --      0.0127                 0.0176                 0.0366
 IR Inten    --      1.2632                 1.7084                 0.4143

                      4                      5                      6
                      A                      A                      A
 Frequencies --    117.0892               151.9936               180.4483
 Red. masses --      4.2959                 3.0217                 2.6317
 Frc consts  --      0.0347                 0.0411                 0.0505
 IR Inten    --      0.8703                 1.5234                 3.0949

                      7                      8                      9
                      A                      A                      A
 Frequencies --    205.4579               208.2522               249.2013
 Red. masses --      2.3557                 2.7826                 3.0861
 Frc consts  --      0.0586                 0.0711                 0.1129
 IR Inten    --      1.6930                 1.9642                 5.9241

                     10                     11                     12
                      A                      A                      A
 Frequencies --    267.2603               298.1184               314.0577
 Red. masses --      2.9224                 3.0229                 2.7489
 Frc consts  --      0.1230                 0.1583                 0.1597
 IR Inten    --      1.6842                 0.2617                 3.2281

                     13                     14                     15
                      A                      A                      A
 Frequencies --    347.4534               368.3963               419.7382
 Red. masses --      3.4151                 2.9174                 3.3017
 Frc consts  --      0.2429                 0.2333                 0.3427
 IR Inten    --      7.0191                 2.2268                13.0293

                     16                     17                     18
                      A                      A                      A
 Frequencies --    442.3431               451.4289               483.1199
 Red. masses --      3.3876                 4.5783                 3.0545
 Frc consts  --      0.3905                 0.5497                 0.4201
 IR Inten    --      3.1750                11.4973                 9.3537

                     19                     20                     21
                      A                      A                      A
 Frequencies --    515.8435               528.3615               571.1283
 Red. masses --      3.7933                 3.9622                 4.9827
 Frc consts  --      0.5947                 0.6517                 0.9576
 IR Inten    --      3.4785                 2.4690                10.2803

                     22                     23                     24
                      A                      A                      A
 Frequencies --    603.5359               636.4976               731.0737
 Red. masses --      3.2795                 4.3692                 1.4784
 Frc consts  --      0.7038                 1.0429                 0.4655
 IR Inten    --     12.5311                 5.9383                53.2125

                     25                     26                     27
                      A                      A                      A
 Frequencies --    746.0350               803.6042               828.5148
 Red. masses --      1.6357                 1.3704                 1.6442
 Frc consts  --      0.5364                 0.5214                 0.6650
 IR Inten    --    141.2433                14.1715                12.1995

                     28                     29                     30
                      A                      A                      A
 Frequencies --    843.0401               845.2891               873.6294
 Red. masses --      1.6364                 1.7110                 2.1890
 Frc consts  --      0.6852                 0.7203                 0.9843
 IR Inten    --     48.8649                28.4075                 4.8177

                     31                     32                     33
                      A                      A                      A
 Frequencies --    884.2682               894.5769               911.7841
 Red. masses --      2.9511                 2.0026                 3.9055
 Frc consts  --      1.3596                 0.9442                 1.9130
 IR Inten    --      9.2029                35.1756                 3.4328

                     34                     35                     36
                      A                      A                      A
 Frequencies --    936.8934               947.2142               969.7292
 Red. masses --      3.4621                 1.8029                 1.1902
 Frc consts  --      1.7905                 0.9530                 0.6595
 IR Inten    --     12.7245                 6.0817                 6.5791

                     37                     38                     39
                      A                      A                      A
 Frequencies --   1014.6395              1037.7436              1047.9918
 Red. masses --      1.1149                 1.1389                 1.8051
 Frc consts  --      0.6762                 0.7226                 1.1681
 IR Inten    --     44.6416                81.0476                 2.8599

                     40                     41                     42
                      A                      A                      A
 Frequencies --   1067.5493              1080.0209              1109.3589
 Red. masses --      1.7215                 3.5067                 3.5575
 Frc consts  --      1.1559                 2.4100                 2.5795
 IR Inten    --      0.8516                21.6220                 5.7086

                     43                     44                     45
                      A                      A                      A
 Frequencies --   1119.2473              1125.2158              1163.6205
 Red. masses --      3.5229                 3.8682                 3.1415
 Frc consts  --      2.6002                 2.8855                 2.5062
 IR Inten    --      3.4970                14.5054                40.0201

                     46                     47                     48
                      A                      A                      A
 Frequencies --   1193.7597              1211.5602              1223.7192
 Red. masses --      2.3595                 1.3287                 1.2255
 Frc consts  --      1.9811                 1.1491                 1.0813
 IR Inten    --      2.5659                 4.2304                 6.1418

                     49                     50                     51
                      A                      A                      A
 Frequencies --   1246.4267              1266.2617              1294.2830
 Red. masses --      1.1455                 1.2957                 1.2164
 Frc consts  --      1.0485                 1.2241                 1.2005
 IR Inten    --      9.8215                 6.7649                22.2338

                     52                     53                     54
                      A                      A                      A
 Frequencies --   1313.2249              1323.5590              1341.6112
 Red. masses --      1.4481                 1.4261                 1.3798
 Frc consts  --      1.4713                 1.4720                 1.4632
 IR Inten    --      1.0889                 1.6863                 5.1887

                     55                     56                     57
                      A                      A                      A
 Frequencies --   1356.9162              1367.3452              1410.4689
 Red. masses --      1.2891                 1.3027                 1.3256
 Frc consts  --      1.3985                 1.4350                 1.5538
 IR Inten    --      4.2313                13.3630                 4.8626

                     58                     59                     60
                      A                      A                      A
 Frequencies --   1421.9330              1460.9188              1468.7692
 Red. masses --      1.4208                 1.0995                 1.1819
 Frc consts  --      1.6926                 1.3826                 1.5022
 IR Inten    --      5.0832                 5.0936                19.1226

                     61                     62                     63
                      A                      A                      A
 Frequencies --   1487.5241              1540.9547              1581.1318
 Red. masses --      1.1247                 4.3206                 4.2215
 Frc consts  --      1.4663                 6.0447                 6.2180
 IR Inten    --      7.2232                21.1100                26.2394

                     64                     65                     66
                      A                      A                      A
 Frequencies --   1611.1702              1652.0973              1658.0265
 Red. masses --      4.4011                 6.7018                 6.0932
 Frc consts  --      6.7313                10.7774                 9.8691
 IR Inten    --    105.6220                28.6481                34.5176

                     67                     68                     69
                      A                      A                      A
 Frequencies --   1817.8506              2933.1800              2949.3136
 Red. masses --      9.1307                 1.0676                 1.0684
 Frc consts  --     17.7775                 5.4116                 5.4753
 IR Inten    --    243.5657                51.4822                95.7952

                     70                     71                     72
                      A                      A                      A
 Frequencies --   3003.8593              3027.6112              3119.4323
 Red. masses --      1.0867                 1.0915                 1.0848
 Frc consts  --      5.7770                 5.8946                 6.2194
 IR Inten    --      2.9978                50.6743                 0.4977

                     73                     74                     75
                      A                      A                      A
 Frequencies --   3123.9787              3124.5236              3135.2913
 Red. masses --      1.0861                 1.0864                 1.0871
 Frc consts  --      6.2448                 6.2492                 6.2961
 IR Inten    --      9.4814                11.9540                41.5705

                     76                     77                     78
                      A                      A                      A
 Frequencies --   3155.4153              3170.9066              3173.7395
 Red. masses --      1.0873                 1.0896                 1.0904
 Frc consts  --      6.3784                 6.4546                 6.4710
 IR Inten    --      2.0906                14.8152                15.7074

                     79                     80                     81
                      A                      A                      A
 Frequencies --   3222.2789              3234.9387              3529.3871
 Red. masses --      1.0831                 1.1092                 1.0747
 Frc consts  --      6.6261                 6.8392                 7.8871
 IR Inten    --      5.1174                 0.9415                 2.7782

 - Thermochemistry -
 -------------------
 Temperature   298.150 Kelvin.  Pressure   1.00000 Atm.
 Atom     1 has atomic number  6 and mass  12.00000

 Molecular mass:   196.11262 amu.
 Principal axes and moments of inertia in atomic units:
                           1         2         3
     Eigenvalues --  2290.109823831.526325631.69543
           X            0.99932  -0.03685   0.00117
           Y            0.03685   0.99932   0.00198
           Z           -0.00124  -0.00194   1.00000
 This molecule is an asymmetric top.
 Rotational symmetry number  1.
 Warning -- assumption of classical behavior for rotation
           may cause significant error
 Rotational temperatures (Kelvin)      0.03782     0.02261     0.01538
 Rotational constants (GHZ):           0.78806     0.47102     0.32046
 Zero-point vibrational energy     620607.2 (Joules/Mol)
                                  148.32868 (Kcal/Mol)
 Warning -- explicit consideration of  22 degrees of freedom as
           vibrations may cause significant error
 Vibrational temperatures:    108.15   117.75   152.91   168.47   218.68
          (Kelvin)            259.62   295.61   299.63   358.55   384.53
                              428.93   451.86   499.91   530.04   603.91
                              636.43   649.51   695.10   742.18   760.19
                              821.73   868.35   915.78  1051.85  1073.38
                             1156.21  1192.05  1212.95  1216.18  1256.96
                             1272.26  1287.10  1311.85  1347.98  1362.83
                             1395.22  1459.84  1493.08  1507.83  1535.97
                             1553.91  1596.12  1610.35  1618.93  1674.19
                             1717.55  1743.16  1760.66  1793.33  1821.87
                             1862.18  1889.44  1904.31  1930.28  1952.30
                             1967.30  2029.35  2045.84  2101.94  2113.23
                             2140.22  2217.09  2274.90  2318.11  2377.00
                             2385.53  2615.48  4220.19  4243.40  4321.88
                             4356.06  4488.17  4494.71  4495.49  4510.98
                             4539.94  4562.23  4566.30  4636.14  4654.36
                             5078.00

 Zero-point correction=                           0.236377 (Hartree/Particle)
 Thermal correction to Energy=                    0.250212
 Thermal correction to Enthalpy=                  0.251156
 Thermal correction to Gibbs Free Energy=         0.195946
 Sum of electronic and zero-point Energies=           -596.155766
 Sum of electronic and thermal Energies=              -596.141931
 Sum of electronic and thermal Enthalpies=            -596.140987
 Sum of electronic and thermal Free Energies=         -596.196197

                     E (Thermal)             CV                S
                      KCal/Mol        Cal/Mol-Kelvin    Cal/Mol-Kelvin
 Total                  157.010             54.465            116.199
 Electronic               0.000              0.000              1.377
 Translational            0.889              2.981             41.726
 Rotational               0.889              2.981             32.269
 Vibrational            155.233             48.503             40.827
 Vibration     1          0.599              1.966              4.013
 Vibration     2          0.600              1.962              3.846
 Vibration     3          0.605              1.944              3.336
 Vibration     4          0.608              1.935              3.148
 Vibration     5          0.619              1.900              2.647
 Vibration     6          0.629              1.866              2.324
 Vibration     7          0.640              1.832              2.084
 Vibration     8          0.642              1.828              2.059
 Vibration     9          0.662              1.764              1.736
 Vibration    10          0.672              1.733              1.614
 Vibration    11          0.691              1.677              1.427
 Vibration    12          0.702              1.647              1.341
 Vibration    13          0.725              1.580              1.178
 Vibration    14          0.741              1.537              1.086
 Vibration    15          0.782              1.427              0.893
 Vibration    16          0.802              1.378              0.819
 Vibration    17          0.810              1.358              0.791
 Vibration    18          0.839              1.287              0.702
 Vibration    19          0.871              1.215              0.620
 Vibration    20          0.883              1.187              0.591
 Vibration    21          0.927              1.094              0.502
 Vibration    22          0.962              1.024              0.444

                           ! Non-Optimized Parameters !
 Normal termination of Gaussian 16 at Fri May 19 15:31:39 2023.
