 Gaussian 16, Revision A.03,
 Gaussian 16:  ES64L-G16RevA.03 25-Dec-2016

 -----------------------------
 # opt freq b3lyp/6-31g(2df,p)
 -----------------------------

 -------------------
 Title Card Required
 -------------------
 Symbolic Z-matrix:
 Charge =  0 Multiplicity = 2

 SCF Done:  E(UB3LYP) =  -568.438874918     A.U. after   27 cycles
 SCF Done:  E(UB3LYP) =  -568.518145990     A.U. after   17 cycles
 SCF Done:  E(UB3LYP) =  -568.562643037     A.U. after   16 cycles
 SCF Done:  E(UB3LYP) =  -568.585601130     A.U. after   17 cycles
 SCF Done:  E(UB3LYP) =  -568.594132777     A.U. after   16 cycles
 SCF Done:  E(UB3LYP) =  -568.602224365     A.U. after   15 cycles
 SCF Done:  E(UB3LYP) =  -568.607144896     A.U. after   17 cycles
 SCF Done:  E(UB3LYP) =  -568.608769244     A.U. after   14 cycles
 SCF Done:  E(UB3LYP) =  -568.609214893     A.U. after   13 cycles
 SCF Done:  E(UB3LYP) =  -568.609351765     A.U. after   13 cycles
 SCF Done:  E(UB3LYP) =  -568.617519974     A.U. after    6 cycles
 SCF Done:  E(UB3LYP) =  -568.617570071     A.U. after   11 cycles
 SCF Done:  E(UB3LYP) =  -568.617580041     A.U. after    8 cycles
 SCF Done:  E(UB3LYP) =  -568.617785547     A.U. after   13 cycles
 SCF Done:  E(UB3LYP) =  -568.617954120     A.U. after   14 cycles
 SCF Done:  E(UB3LYP) =  -568.618040808     A.U. after   13 cycles
 SCF Done:  E(UB3LYP) =  -568.618051597     A.U. after   12 cycles
 SCF Done:  E(UB3LYP) =  -568.618052054     A.U. after   11 cycles
 SCF Done:  E(UB3LYP) =  -568.618052115     A.U. after    7 cycles
 Optimization completed.
    -- Stationary point found.
 Normal termination of Gaussian 16 at Wed May 17 06:38:44 2023.

 ----------------------------------------------------------------------
 #N Geom=AllCheck Guess=TCheck SCRF=Check GenChk UB3LYP/6-31G(2df,p) Fr
 eq
 ----------------------------------------------------------------------

 Structure from the checkpoint file:  "[C][N]C[N][C]CCCCNNO.chk"
 -------------------
 Title Card Required
 -------------------
 Charge =  0 Multiplicity = 2

                         Standard orientation:
 ---------------------------------------------------------------------
 Center     Atomic      Atomic             Coordinates (Angstroms)
 Number     Number       Type             X           Y           Z
 ---------------------------------------------------------------------
      1          6           0        5.729250   -1.842890   -0.424333
      2          7           0        5.212746   -0.889964    0.021399
      3          6           0        4.591910    0.263181    0.569131
      4          7           0        3.386110    0.592035   -0.177043
      5          6           0        2.305559    0.860311    0.360428
      6          6           0        0.994655    1.227532   -0.248573
      7          6           0       -0.122400    0.247474    0.153578
      8          6           0       -1.479175    0.638670   -0.439082
      9          6           0       -2.594883   -0.328587   -0.046029
     10          7           0       -3.872928    0.093272   -0.614993
     11          7           0       -4.972518   -0.739873   -0.318870
     12          8           0       -5.438030   -0.410487    1.005104
     13          1           0        5.291148    1.102311    0.485901
     14          1           0        4.385214    0.083716    1.630462
     15          1           0        1.099198    1.270633   -1.342151
     16          1           0        0.732414    2.235554    0.096935
     17          1           0       -0.189497    0.209447    1.247243
     18          1           0        0.151425   -0.762122   -0.175785
     19          1           0       -1.400097    0.678292   -1.534906
     20          1           0       -1.757593    1.647708   -0.112302
     21          1           0       -2.717699   -0.336289    1.042626
     22          1           0       -2.322481   -1.357980   -0.349596
     23          1           0       -3.833578    0.173933   -1.625502
     24          1           0       -4.641527   -1.694523   -0.153562
     25          1           0       -6.116050    0.250780    0.825629
 ---------------------------------------------------------------------

 SCF Done:  E(UB3LYP) =  -568.618052115     A.U. after    1 cycles

 The electronic state is 2-A.
 Alpha  occ. eigenvalues --  -19.15456 -14.39129 -14.36377 -14.36073 -14.34515
 Alpha  occ. eigenvalues --  -10.29313 -10.24438 -10.21586 -10.21403 -10.21227
 Alpha  occ. eigenvalues --  -10.20230 -10.19617  -1.06244  -0.97775  -0.92999
 Alpha  occ. eigenvalues --   -0.92959  -0.82306  -0.78461  -0.75747  -0.71199
 Alpha  occ. eigenvalues --   -0.65085  -0.60381  -0.58157  -0.54812  -0.51968
 Alpha  occ. eigenvalues --   -0.50519  -0.50102  -0.49397  -0.47986  -0.46583
 Alpha  occ. eigenvalues --   -0.44449  -0.42508  -0.41057  -0.39230  -0.37086
 Alpha  occ. eigenvalues --   -0.36778  -0.35813  -0.35069  -0.34323  -0.34102
 Alpha  occ. eigenvalues --   -0.31847  -0.30250  -0.29988  -0.24755  -0.23911
 Alpha  occ. eigenvalues --   -0.20205
 Alpha virt. eigenvalues --   -0.01423   0.02751   0.03253   0.07868   0.08357
 Alpha virt. eigenvalues --    0.08891   0.10270   0.10839   0.11508   0.12090
 Alpha virt. eigenvalues --    0.14233   0.15319   0.15791   0.16430   0.16687

  Beta  occ. eigenvalues --  -19.15456 -14.39129 -14.36387 -14.35685 -14.34516
  Beta  occ. eigenvalues --  -10.29168 -10.23360 -10.21442 -10.21403 -10.21226
  Beta  occ. eigenvalues --  -10.20227 -10.19618  -1.06244  -0.97270  -0.92978
  Beta  occ. eigenvalues --   -0.92319  -0.82075  -0.78054  -0.75603  -0.70984
  Beta  occ. eigenvalues --   -0.64836  -0.60290  -0.57584  -0.54157  -0.51965
  Beta  occ. eigenvalues --   -0.50387  -0.49800  -0.48827  -0.47629  -0.46088
  Beta  occ. eigenvalues --   -0.44034  -0.42389  -0.40859  -0.38131  -0.36816
  Beta  occ. eigenvalues --   -0.36023  -0.35413  -0.34660  -0.34182  -0.33039
  Beta  occ. eigenvalues --   -0.30940  -0.30249  -0.29938  -0.24753  -0.23908
  Beta virt. eigenvalues --   -0.07443  -0.00152   0.02886   0.03303   0.07905
  Beta virt. eigenvalues --    0.08436   0.08918   0.10293   0.11094   0.11594
  Beta virt. eigenvalues --    0.12327   0.14336   0.15382   0.15995   0.16506

 Mulliken charges and spin densities:
               1          2
     1  C   -0.240510   0.001442
     2  N    0.049387  -0.002370
     3  C   -0.073391   0.026613
     4  N   -0.109648   0.158423
     5  C    0.025831   0.716408
     6  C   -0.265330   0.024990
     7  C   -0.181678  -0.000614
     8  C   -0.197730   0.000682
     9  C   -0.133697   0.000261
    10  N   -0.234601  -0.000034
    11  N   -0.209345  -0.000056
    12  O   -0.394490  -0.000003
    13  H    0.154301  -0.001819
    14  H    0.146233   0.024782
    15  H    0.129053   0.049038
    16  H    0.130574  -0.000970
    17  H    0.113872   0.002571
    18  H    0.114904   0.000524
    19  H    0.096031   0.000019
    20  H    0.114369   0.000055
    21  H    0.126969   0.000059
    22  H    0.078687  -0.000011
    23  H    0.229469   0.000012
    24  H    0.234520  -0.000001
    25  H    0.296220   0.000000
 Sum of Mulliken charges =  -0.00000   1.00000

 Dipole moment (field-independent basis, Debye):
    X=             -1.7586    Y=              2.8528    Z=              0.6238  Tot=              3.4088
 Quadrupole moment (field-independent basis, Debye-Ang):
   XX=            -93.2691   YY=            -74.4860   ZZ=            -71.3182
   XY=             14.0092   XZ=             11.8135   YZ=             -0.5071

  Exact polarizability: 153.290 -10.849  94.677  -5.922   3.447  86.936
 Approx polarizability: 173.120 -17.737 144.935 -15.740   8.483 139.431

                      1                      2                      3
                      A                      A                      A
 Frequencies --     14.4516                31.9841                48.0222
 Red. masses --      6.6070                 3.7031                 4.7201
 Frc consts  --      0.0008                 0.0022                 0.0064
 IR Inten    --      3.5978                 1.5831                 1.0348

                      4                      5                      6
                      A                      A                      A
 Frequencies --     57.3267                89.5715               101.5040
 Red. masses --      3.9713                 4.2494                 2.4251
 Frc consts  --      0.0077                 0.0201                 0.0147
 IR Inten    --      2.2854                 2.5470                 0.3061

                      7                      8                      9
                      A                      A                      A
 Frequencies --    124.5651               138.7590               164.2935
 Red. masses --      3.5914                 2.4944                 2.9214
 Frc consts  --      0.0328                 0.0283                 0.0465
 IR Inten    --      0.5132                 0.5415                 3.0216

                     10                     11                     12
                      A                      A                      A
 Frequencies --    176.5085               238.2488               251.1914
 Red. masses --      3.9059                 4.5564                 3.4269
 Frc consts  --      0.0717                 0.1524                 0.1274
 IR Inten    --      7.9365                 8.4427                 8.9405

                     13                     14                     15
                      A                      A                      A
 Frequencies --    267.2904               292.5624               327.8406
 Red. masses --      4.9866                 2.0018                 1.8767
 Frc consts  --      0.2099                 0.1010                 0.1188
 IR Inten    --      0.2033                61.6128                46.9058

                     16                     17                     18
                      A                      A                      A
 Frequencies --    426.7830               455.9546               517.9012
 Red. masses --      3.9242                 3.5615                 4.5152
 Frc consts  --      0.4211                 0.4362                 0.7135
 IR Inten    --      3.2672                11.9830                 1.5432

                     19                     20                     21
                      A                      A                      A
 Frequencies --    552.0614               595.7294               695.4989
 Red. masses --      4.4163                 2.8685                 1.9366
 Frc consts  --      0.7930                 0.5998                 0.5519
 IR Inten    --      2.4242                 7.7824                77.0180

                     22                     23                     24
                      A                      A                      A
 Frequencies --    743.5161               799.7758               885.6162
 Red. masses --      1.0896                 1.2427                 5.2092
 Frc consts  --      0.3549                 0.4683                 2.4072
 IR Inten    --      2.3840                 0.8853                56.2228

                     25                     26                     27
                      A                      A                      A
 Frequencies --    905.0164               951.0100               962.2656
 Red. masses --      1.9718                 2.0975                 5.8700
 Frc consts  --      0.9515                 1.1177                 3.2024
 IR Inten    --      6.2285                18.8848                33.3583

                     28                     29                     30
                      A                      A                      A
 Frequencies --   1008.7518              1022.1708              1040.8062
 Red. masses --      4.2367                 2.7734                 2.0364
 Frc consts  --      2.5401                 1.7073                 1.2997
 IR Inten    --     11.3528                33.7098                14.6701

                     31                     32                     33
                      A                      A                      A
 Frequencies --   1058.4343              1071.9113              1078.7947
 Red. masses --      2.3414                 2.7037                 2.6947
 Frc consts  --      1.5454                 1.8303                 1.8477
 IR Inten    --      4.5972                10.7382                26.2934

                     34                     35                     36
                      A                      A                      A
 Frequencies --   1113.7330              1137.1780              1158.2919
 Red. masses --      4.3580                 1.6921                 1.4245
 Frc consts  --      3.1849                 1.2892                 1.1260
 IR Inten    --     14.8484                41.0065                44.3025

                     37                     38                     39
                      A                      A                      A
 Frequencies --   1208.4883              1249.5838              1271.9492
 Red. masses --      1.5298                 1.3356                 1.1855
 Frc consts  --      1.3164                 1.2288                 1.1300
 IR Inten    --      3.6082                12.5657                 3.0290

                     40                     41                     42
                      A                      A                      A
 Frequencies --   1275.8777              1315.4535              1322.3765
 Red. masses --      1.1375                 1.2424                 1.2012
 Frc consts  --      1.0910                 1.2667                 1.2375
 IR Inten    --      2.8356                 3.7050                 2.7188

                     43                     44                     45
                      A                      A                      A
 Frequencies --   1325.6349              1370.4712              1386.3817
 Red. masses --      1.0690                 1.2757                 1.2736
 Frc consts  --      1.1068                 1.4117                 1.4423
 IR Inten    --      1.4172                13.3348               106.0526

                     46                     47                     48
                      A                      A                      A
 Frequencies --   1388.7673              1416.3113              1458.8367
 Red. masses --      1.3639                 1.4639                 1.0813
 Frc consts  --      1.5499                 1.7301                 1.3558
 IR Inten    --     20.6823                17.8327                 1.9738

                     49                     50                     51
                      A                      A                      A
 Frequencies --   1484.5294              1488.5559              1489.7359
 Red. masses --      1.1790                 1.0753                 1.0799
 Frc consts  --      1.5309                 1.4038                 1.4120
 IR Inten    --      8.9559                 0.1204                 1.9591

                     52                     53                     54
                      A                      A                      A
 Frequencies --   1501.3289              1516.2673              1544.5405
 Red. masses --      1.0873                 1.0933                 1.0805
 Frc consts  --      1.4440                 1.4810                 1.5187
 IR Inten    --      2.6533                 4.0770                 4.8698

                     55                     56                     57
                      A                      A                      A
 Frequencies --   1853.1108              2228.3480              2916.4548
 Red. masses --     11.6664                12.5124                 1.0721
 Frc consts  --     23.6042                36.6065                 5.3726
 IR Inten    --    148.5111               186.5860                63.4299

                     58                     59                     60
                      A                      A                      A
 Frequencies --   3000.4484              3008.2737              3029.3578
 Red. masses --      1.0603                 1.0641                 1.0560
 Frc consts  --      5.6240                 5.6739                 5.7099
 IR Inten    --      8.3577                21.8794                25.5578

                     61                     62                     63
                      A                      A                      A
 Frequencies --   3031.8228              3049.6792              3054.7143
 Red. masses --      1.0619                 1.0930                 1.0924
 Frc consts  --      5.7511                 5.9894                 6.0058
 IR Inten    --     24.2274                 8.6690                 5.8516

                     64                     65                     66
                      A                      A                      A
 Frequencies --   3067.8366              3075.5519              3084.0446
 Red. masses --      1.0932                 1.1069                 1.1035
 Frc consts  --      6.0622                 6.1687                 6.1839
 IR Inten    --      3.6070                 8.2970                61.1519

                     67                     68                     69
                      A                      A                      A
 Frequencies --   3380.0157              3527.6970              3797.6248
 Red. masses --      1.0740                 1.0748                 1.0678
 Frc consts  --      7.2290                 7.8808                 9.0737
 IR Inten    --     10.2782                 1.1395                37.5921

 - Thermochemistry -
 -------------------
 Temperature   298.150 Kelvin.  Pressure   1.00000 Atm.
 Atom     1 has atomic number  6 and mass  12.00000

 Molecular mass:   169.10894 amu.
 Principal axes and moments of inertia in atomic units:
                           1         2         3
     Eigenvalues --   592.994119244.383199497.76647
           X            0.99997   0.00611   0.00397
           Y           -0.00604   0.99982  -0.01790
           Z           -0.00407   0.01788   0.99983
 This molecule is an asymmetric top.
 Rotational symmetry number  1.
 Warning -- assumption of classical behavior for rotation
           may cause significant error
 Rotational temperatures (Kelvin)      0.14606     0.00937     0.00912
 Rotational constants (GHZ):           3.04344     0.19523     0.19002
 Zero-point vibrational energy     542060.2 (Joules/Mol)
                                  129.55550 (Kcal/Mol)
 Warning -- explicit consideration of  20 degrees of freedom as
           vibrations may cause significant error
 Vibrational temperatures:     20.79    46.02    69.09    82.48   128.87
          (Kelvin)            146.04   179.22   199.64   236.38   253.96
                              342.79   361.41   384.57   420.93   471.69
                              614.05   656.02   745.14   794.29   857.12
                             1000.67  1069.75  1150.70  1274.20  1302.12
                             1368.29  1384.49  1451.37  1470.68  1497.49
                             1522.85  1542.24  1552.14  1602.41  1636.15
                             1666.52  1738.75  1797.87  1830.05  1835.70
                             1892.64  1902.60  1907.29  1971.80  1994.69
                             1998.13  2037.76  2098.94  2135.91  2141.70
                             2143.40  2160.08  2181.57  2222.25  2666.21
                             3206.10  4196.13  4316.98  4328.23  4358.57
                             4362.12  4387.81  4395.05  4413.93  4425.03
                             4437.25  4863.09  5075.57  5463.94

 Zero-point correction=                           0.206460 (Hartree/Particle)
 Thermal correction to Energy=                    0.221052
 Thermal correction to Enthalpy=                  0.221997
 Thermal correction to Gibbs Free Energy=         0.160874
 Sum of electronic and zero-point Energies=           -568.411592
 Sum of electronic and thermal Energies=              -568.397000
 Sum of electronic and thermal Enthalpies=            -568.396056
 Sum of electronic and thermal Free Energies=         -568.457178

                     E (Thermal)             CV                S
                      KCal/Mol        Cal/Mol-Kelvin    Cal/Mol-Kelvin
 Total                  138.712             49.059            128.643
 Electronic               0.000              0.000              1.377
 Translational            0.889              2.981             41.284
 Rotational               0.889              2.981             32.321
 Vibrational            136.935             43.098             53.660
 Vibration     1          0.593              1.986              7.280
 Vibration     2          0.594              1.983              5.702
 Vibration     3          0.595              1.978              4.897
 Vibration     4          0.596              1.975              4.547
 Vibration     5          0.602              1.957              3.669
 Vibration     6          0.604              1.948              3.425
 Vibration     7          0.610              1.928              3.028
 Vibration     8          0.614              1.915              2.821
 Vibration     9          0.623              1.886              2.500
 Vibration    10          0.628              1.871              2.365
 Vibration    11          0.656              1.782              1.816
 Vibration    12          0.663              1.761              1.722
 Vibration    13          0.672              1.733              1.614
 Vibration    14          0.688              1.688              1.459
 Vibration    15          0.711              1.620              1.271
 Vibration    16          0.788              1.412              0.869
 Vibration    17          0.814              1.348              0.778
 Vibration    18          0.873              1.210              0.615
 Vibration    19          0.907              1.135              0.540
 Vibration    20          0.953              1.041              0.457

                           ! Non-Optimized Parameters !
 Normal termination of Gaussian 16 at Wed May 17 08:07:22 2023.
