 Gaussian 16, Revision A.03,
 Gaussian 16:  ES64L-G16RevA.03 25-Dec-2016

 -----------------------------
 # opt freq b3lyp/6-31g(2df,p)
 -----------------------------

 -------------------
 Title Card Required
 -------------------
 Symbolic Z-matrix:
 Charge =  0 Multiplicity = 1

 SCF Done:  E(RB3LYP) =  -801.112793211     A.U. after   19 cycles
 SCF Done:  E(RB3LYP) =  -801.145453476     A.U. after   15 cycles
 SCF Done:  E(RB3LYP) =  -801.149464287     A.U. after   14 cycles
 SCF Done:  E(RB3LYP) =  -801.152155574     A.U. after   14 cycles
 SCF Done:  E(RB3LYP) =  -801.153555794     A.U. after   14 cycles
 SCF Done:  E(RB3LYP) =  -801.154205378     A.U. after   14 cycles
 SCF Done:  E(RB3LYP) =  -801.154286387     A.U. after   12 cycles
 SCF Done:  E(RB3LYP) =  -801.154029079     A.U. after   13 cycles
 SCF Done:  E(RB3LYP) =  -801.154437641     A.U. after   12 cycles
 SCF Done:  E(RB3LYP) =  -801.154556575     A.U. after   12 cycles
 SCF Done:  E(RB3LYP) =  -801.156803348     A.U. after   14 cycles
 SCF Done:  E(RB3LYP) =  -801.156952706     A.U. after   14 cycles
 SCF Done:  E(RB3LYP) =  -801.157034727     A.U. after   13 cycles
 SCF Done:  E(RB3LYP) =  -801.157070188     A.U. after   12 cycles
 SCF Done:  E(RB3LYP) =  -801.157087457     A.U. after   12 cycles
 SCF Done:  E(RB3LYP) =  -801.157095194     A.U. after   12 cycles
 SCF Done:  E(RB3LYP) =  -801.157098824     A.U. after   11 cycles
 SCF Done:  E(RB3LYP) =  -801.157099063     A.U. after    9 cycles
 SCF Done:  E(RB3LYP) =  -801.157099095     A.U. after    8 cycles
 Optimization completed.
    -- Stationary point found.
 Normal termination of Gaussian 16 at Wed May 17 08:29:02 2023.

 ----------------------------------------------------------------------
 #N Geom=AllCheck Guess=TCheck SCRF=Check GenChk RB3LYP/6-31G(2df,p) Fr
 eq
 ----------------------------------------------------------------------

 Structure from the checkpoint file:  "[C][C]1CdCNdC1CCCCdS.chk"
 -------------------
 Title Card Required
 -------------------
 Charge =  0 Multiplicity = 1

                         Standard orientation:
 ---------------------------------------------------------------------
 Center     Atomic      Atomic             Coordinates (Angstroms)
 Number     Number       Type             X           Y           Z
 ---------------------------------------------------------------------
      1          6           0        3.176204    1.997452    0.217739
      2          6           0        3.159893    0.696319    0.144377
      3          6           0        4.048562   -0.453622    0.166106
      4          6           0        3.250340   -1.537969    0.029280
      5          7           0        1.891344   -1.206566   -0.083627
      6          6           0        1.761958    0.073191   -0.025105
      7          6           0        0.467953    0.823387   -0.112486
      8          6           0       -0.754487   -0.091598   -0.240395
      9          6           0       -2.062096    0.721794   -0.328507
     10          6           0       -3.253998   -0.162405   -0.526124
     11         16           0       -4.544894   -0.275014    0.444954
     12          1           0        5.120460   -0.404984    0.272408
     13          1           0        3.548156   -2.576997    0.001263
     14          1           0        0.518246    1.511865   -0.966480
     15          1           0        0.372040    1.465030    0.772661
     16          1           0       -0.798803   -0.768162    0.618373
     17          1           0       -0.644356   -0.727586   -1.124785
     18          1           0       -1.997779    1.396867   -1.196502
     19          1           0       -2.201508    1.338995    0.563514
     20          1           0       -3.203529   -0.788131   -1.423641
 ---------------------------------------------------------------------

 SCF Done:  E(RB3LYP) =  -801.157099095     A.U. after    1 cycles

 The electronic state is 1-A.
 Alpha  occ. eigenvalues --  -88.86252 -14.34689 -10.26870 -10.25948 -10.25858
 Alpha  occ. eigenvalues --  -10.23205 -10.21662 -10.21658 -10.21370 -10.20858
 Alpha  occ. eigenvalues --  -10.20555  -7.92808  -5.89173  -5.89052  -5.88291
 Alpha  occ. eigenvalues --   -0.97899  -0.83901  -0.81410  -0.80302  -0.75606
 Alpha  occ. eigenvalues --   -0.70965  -0.64704  -0.62774  -0.57186  -0.55649
 Alpha  occ. eigenvalues --   -0.53710  -0.49538  -0.46827  -0.45378  -0.44357
 Alpha  occ. eigenvalues --   -0.43330  -0.41389  -0.40671  -0.39232  -0.37111
 Alpha  occ. eigenvalues --   -0.36581  -0.35173  -0.31384  -0.30599  -0.29850
 Alpha  occ. eigenvalues --   -0.28726  -0.25368  -0.22423
 Alpha virt. eigenvalues --   -0.11143  -0.08380  -0.07950   0.04336   0.07464
 Alpha virt. eigenvalues --    0.08826   0.09275   0.10710   0.11648   0.13209
 Alpha virt. eigenvalues --    0.13729   0.14694   0.15530   0.17680   0.18165

 Mulliken charges:
               1
     1  C   -0.200882
     2  C    0.222176
     3  C   -0.251614
     4  C   -0.029686
     5  N   -0.269708
     6  C    0.280457
     7  C   -0.321002
     8  C   -0.183430
     9  C   -0.238388
    10  C    0.039484
    11  S   -0.239807
    12  H    0.136677
    13  H    0.131084
    14  H    0.137384
    15  H    0.142086
    16  H    0.133370
    17  H    0.122260
    18  H    0.123586
    19  H    0.131539
    20  H    0.134412
 Sum of Mulliken charges =  -0.00000

 Dipole moment (field-independent basis, Debye):
    X=              2.7391    Y=             -0.5095    Z=             -1.2184  Tot=              3.0409
 Quadrupole moment (field-independent basis, Debye-Ang):
   XX=            -78.9234   YY=            -76.3697   ZZ=            -71.2335
   XY=             -8.4850   XZ=              4.1584   YZ=             -0.9497

  Exact polarizability: 159.257   7.711 118.947  -7.105   2.813  75.400
 Approx polarizability: 216.044  29.153 247.467 -18.309   7.526 132.177

                      1                      2                      3
                      A                      A                      A
 Frequencies --     25.5740                36.5994                78.3687
 Red. masses --      4.2779                 6.5919                 2.5031
 Frc consts  --      0.0016                 0.0052                 0.0091
 IR Inten    --      1.2119                 1.5257                 0.1222

                      4                      5                      6
                      A                      A                      A
 Frequencies --     89.1882               114.6007               157.3892
 Red. masses --      3.4527                 2.9523                 7.4739
 Frc consts  --      0.0162                 0.0228                 0.1091
 IR Inten    --      1.0390                 0.6726                11.4692

                      7                      8                      9
                      A                      A                      A
 Frequencies --    170.6122               239.6799               269.2867
 Red. masses --      5.7383                 4.5980                 3.9876
 Frc consts  --      0.0984                 0.1556                 0.1704
 IR Inten    --      7.0641                 0.1033                 3.3025

                     10                     11                     12
                      A                      A                      A
 Frequencies --    276.2687               411.3744               441.1405
 Red. masses --      3.4974                 3.3011                 3.5790
 Frc consts  --      0.1573                 0.3291                 0.4104
 IR Inten    --      1.0823                 5.7820                 7.6318

                     13                     14                     15
                      A                      A                      A
 Frequencies --    579.9130               632.5409               638.8313
 Red. masses --      4.0136                 2.8608                 5.8451
 Frc consts  --      0.7953                 0.6744                 1.4054
 IR Inten    --      8.3291                 1.1818                 2.4046

                     16                     17                     18
                      A                      A                      A
 Frequencies --    740.5271               767.2139               781.0566
 Red. masses --      1.1755                 2.5201                 1.5518
 Frc consts  --      0.3798                 0.8740                 0.5578
 IR Inten    --      8.0293                10.2565                19.4144

                     19                     20                     21
                      A                      A                      A
 Frequencies --    807.6571               841.7961               872.0734
 Red. masses --      1.9171                 7.5713                 1.5348
 Frc consts  --      0.7368                 3.1611                 0.6877
 IR Inten    --      9.5582                 3.9838                 8.9697

                     22                     23                     24
                      A                      A                      A
 Frequencies --    909.0653               941.4976              1003.0059
 Red. masses --      1.3628                 3.0721                 5.8107
 Frc consts  --      0.6636                 1.6044                 3.4442
 IR Inten    --      1.3109                10.6488                29.9532

                     25                     26                     27
                      A                      A                      A
 Frequencies --   1021.4390              1033.3736              1079.7379
 Red. masses --      3.4745                 3.1349                 2.3959
 Frc consts  --      2.1358                 1.9723                 1.6457
 IR Inten    --     36.3661                13.0577                27.8054

                     28                     29                     30
                      A                      A                      A
 Frequencies --   1089.1598              1109.6359              1150.2565
 Red. masses --      1.9290                 1.5880                 1.4124
 Frc consts  --      1.3482                 1.1520                 1.1010
 IR Inten    --      0.7410                33.1212                28.2485

                     31                     32                     33
                      A                      A                      A
 Frequencies --   1168.5688              1175.2402              1249.7986
 Red. masses --      2.1652                 1.9155                 1.3233
 Frc consts  --      1.7420                 1.5588                 1.2178
 IR Inten    --     30.0129                36.3990                 4.4309

                     34                     35                     36
                      A                      A                      A
 Frequencies --   1279.6587              1320.2530              1328.8510
 Red. masses --      1.2361                 1.0889                 1.5073
 Frc consts  --      1.1926                 1.1183                 1.5682
 IR Inten    --      6.4988                 1.0751                 7.4803

                     37                     38                     39
                      A                      A                      A
 Frequencies --   1344.9124              1395.8495              1404.7631
 Red. masses --      1.5467                 1.6595                 1.6251
 Frc consts  --      1.6484                 1.9051                 1.8894
 IR Inten    --      5.8069                13.5120                53.4017

                     40                     41                     42
                      A                      A                      A
 Frequencies --   1463.6619              1469.3968              1497.4691
 Red. masses --      1.1038                 1.0967                 1.0973
 Frc consts  --      1.3932                 1.3951                 1.4497
 IR Inten    --      5.1941                 4.0592                 5.7278

                     43                     44                     45
                      A                      A                      A
 Frequencies --   1546.6371              1611.7208              1784.6972
 Red. masses --      5.5399                 7.5263                11.8104
 Frc consts  --      7.8077                11.5189                22.1637
 IR Inten    --     11.5919                70.4793               126.5672

                     46                     47                     48
                      A                      A                      A
 Frequencies --   2991.9194              3023.5294              3049.6688
 Red. masses --      1.0671                 1.0606                 1.0961
 Frc consts  --      5.6278                 5.7125                 6.0061
 IR Inten    --      8.8716                 5.7028                 3.9826

                     49                     50                     51
                      A                      A                      A
 Frequencies --   3056.4400              3064.5411              3088.0614
 Red. masses --      1.0634                 1.0844                 1.0945
 Frc consts  --      5.8530                 6.0003                 6.1496
 IR Inten    --      8.2445                16.1002                 4.1849

                     52                     53                     54
                      A                      A                      A
 Frequencies --   3106.3410              3235.3926              3271.8391
 Red. masses --      1.1020                 1.0903                 1.1021
 Frc consts  --      6.2652                 6.7243                 6.9512
 IR Inten    --     25.2164                 4.8980                 1.7853

 - Thermochemistry -
 -------------------
 Temperature   298.150 Kelvin.  Pressure   1.00000 Atm.
 Atom     1 has atomic number  6 and mass  12.00000

 Molecular mass:   163.04557 amu.
 Principal axes and moments of inertia in atomic units:
                           1         2         3
     Eigenvalues --   567.967735641.179716065.78436
           X            0.99995  -0.00837   0.00455
           Y            0.00836   0.99996   0.00034
           Z           -0.00455  -0.00030   0.99999
 This molecule is an asymmetric top.
 Rotational symmetry number  1.
 Warning -- assumption of classical behavior for rotation
           may cause significant error
 Rotational temperatures (Kelvin)      0.15250     0.01535     0.01428
 Rotational constants (GHZ):           3.17754     0.31992     0.29753
 Zero-point vibrational energy     402173.0 (Joules/Mol)
                                   96.12165 (Kcal/Mol)
 Warning -- explicit consideration of  13 degrees of freedom as
           vibrations may cause significant error
 Vibrational temperatures:     36.80    52.66   112.76   128.32   164.88
          (Kelvin)            226.45   245.47   344.85   387.44   397.49
                              591.88   634.70   834.37   910.09   919.14
                             1065.45  1103.85  1123.77  1162.04  1211.16
                             1254.72  1307.94  1354.60  1443.10  1469.62
                             1486.79  1553.50  1567.06  1596.52  1654.96
                             1681.31  1690.91  1798.18  1841.14  1899.55
                             1911.92  1935.03  2008.32  2021.14  2105.88
                             2114.13  2154.52  2225.27  2318.91  2567.78
                             4304.70  4350.18  4387.79  4397.54  4409.19
                             4443.03  4469.33  4655.01  4707.45

 Zero-point correction=                           0.153180 (Hartree/Particle)
 Thermal correction to Energy=                    0.164581
 Thermal correction to Enthalpy=                  0.165525
 Thermal correction to Gibbs Free Energy=         0.113157
 Sum of electronic and zero-point Energies=           -801.003919
 Sum of electronic and thermal Energies=              -800.992518
 Sum of electronic and thermal Enthalpies=            -800.991574
 Sum of electronic and thermal Free Energies=         -801.043942

                     E (Thermal)             CV                S
                      KCal/Mol        Cal/Mol-Kelvin    Cal/Mol-Kelvin
 Total                  103.276             39.386            110.218
 Electronic               0.000              0.000              0.000
 Translational            0.889              2.981             41.175
 Rotational               0.889              2.981             31.342
 Vibrational            101.499             33.425             37.701
 Vibration     1          0.593              1.985              6.146
 Vibration     2          0.594              1.982              5.435
 Vibration     3          0.600              1.964              3.931
 Vibration     4          0.602              1.957              3.678
 Vibration     5          0.608              1.937              3.189
 Vibration     6          0.621              1.894              2.581
 Vibration     7          0.626              1.879              2.429
 Vibration     8          0.657              1.780              1.805
 Vibration     9          0.674              1.730              1.601
 Vibration    10          0.678              1.717              1.557
 Vibration    11          0.775              1.446              0.922
 Vibration    12          0.801              1.380              0.823
 Vibration    13          0.937              1.075              0.486

 Optimization completed.
    -- Stationary point found.
 Normal termination of Gaussian 16 at Wed May 17 09:04:31 2023.
