 Gaussian 16, Revision A.03,
 Gaussian 16:  ES64L-G16RevA.03 25-Dec-2016

 -----------------------------
 # opt freq b3lyp/6-31g(2df,p)
 -----------------------------

 -------------------
 Title Card Required
 -------------------
 Symbolic Z-matrix:
 Charge =  0 Multiplicity = 1

 SCF Done:  E(RB3LYP) =  -423.906538606     A.U. after   19 cycles
 SCF Done:  E(RB3LYP) =  -423.930024655     A.U. after   16 cycles
 SCF Done:  E(RB3LYP) =  -423.937124752     A.U. after   14 cycles
 SCF Done:  E(RB3LYP) =  -423.940525610     A.U. after   13 cycles
 SCF Done:  E(RB3LYP) =  -423.940947136     A.U. after   12 cycles
 SCF Done:  E(RB3LYP) =  -423.941109501     A.U. after   13 cycles
 SCF Done:  E(RB3LYP) =  -423.941144327     A.U. after   12 cycles
 SCF Done:  E(RB3LYP) =  -423.941254241     A.U. after   13 cycles
 SCF Done:  E(RB3LYP) =  -423.941290815     A.U. after   13 cycles
 SCF Done:  E(RB3LYP) =  -423.941351290     A.U. after   11 cycles
 SCF Done:  E(RB3LYP) =  -423.941378797     A.U. after   12 cycles
 SCF Done:  E(RB3LYP) =  -423.941382823     A.U. after    9 cycles
 SCF Done:  E(RB3LYP) =  -423.941382888     A.U. after    8 cycles
 Optimization completed.
    -- Stationary point found.
 Normal termination of Gaussian 16 at Mon May 15 21:10:39 2023.

 ----------------------------------------------------------------------
 #N Geom=AllCheck Guess=TCheck SCRF=Check GenChk RB3LYP/6-31G(2df,p) Fr
 eq
 ----------------------------------------------------------------------

 Structure from the checkpoint file:  "[C]dCCdC[C]CCCqCrdO.chk"
 -------------------
 Title Card Required
 -------------------
 Charge =  0 Multiplicity = 1

                         Standard orientation:
 ---------------------------------------------------------------------
 Center     Atomic      Atomic             Coordinates (Angstroms)
 Number     Number       Type             X           Y           Z
 ---------------------------------------------------------------------
      1          6           0       -5.590232   -0.019460   -0.000340
      2          6           0       -4.330884    0.337386   -0.000226
      3          6           0       -3.077189   -0.373713    0.000152
      4          6           0       -1.851533    0.221320    0.000195
      5          6           0       -0.710596   -0.637885    0.000421
      6          6           0        0.577417    0.117540    0.000150
      7          6           0        1.829760   -0.763800    0.000094
      8          6           0        3.214655   -0.110003   -0.000101
      9          6           0        3.367071    1.409135    0.000070
     10          8           0        4.201285   -0.809936   -0.000408
     11          1           0       -4.331668    1.442465   -0.000378
     12          1           0       -3.108586   -1.458695    0.000371
     13          1           0       -1.815746    1.321968   -0.000017
     14          1           0        0.570107    0.801451    0.869897
     15          1           0        0.569987    0.801413   -0.869624
     16          1           0        1.802464   -1.434645   -0.866580
     17          1           0        1.802631   -1.434504    0.866884
     18          1           0        2.426346    1.959567    0.000763
     19          1           0        3.951101    1.698826   -0.879039
     20          1           0        3.952269    1.698524    0.878495
 ---------------------------------------------------------------------

 SCF Done:  E(RB3LYP) =  -423.941382888     A.U. after    1 cycles

 The electronic state is 1-A.
 Alpha  occ. eigenvalues --  -19.11845 -10.27500 -10.26709 -10.25863 -10.22702
 Alpha  occ. eigenvalues --  -10.21126 -10.20015 -10.19785 -10.18694 -10.18544
 Alpha  occ. eigenvalues --   -1.03179  -0.85917  -0.81275  -0.77817  -0.73517
 Alpha  occ. eigenvalues --   -0.69418  -0.62607  -0.56980  -0.52848  -0.52470
 Alpha  occ. eigenvalues --   -0.48837  -0.47166  -0.46419  -0.42939  -0.42836
 Alpha  occ. eigenvalues --   -0.41613  -0.39366  -0.38399  -0.37349  -0.36976
 Alpha  occ. eigenvalues --   -0.36245  -0.32822  -0.31751  -0.28465  -0.23781
 Alpha  occ. eigenvalues --   -0.20043
 Alpha virt. eigenvalues --   -0.11950  -0.11734  -0.01539   0.00474   0.06210
 Alpha virt. eigenvalues --    0.08511   0.09254   0.11847   0.13739   0.14254
 Alpha virt. eigenvalues --    0.14449   0.14786   0.16778   0.17816   0.19699

 Mulliken charges:
               1
     1  C   -0.088271
     2  C   -0.076112
     3  C   -0.005293
     4  C   -0.073710
     5  C   -0.143778
     6  C   -0.246605
     7  C   -0.276880
     8  C    0.361713
     9  C   -0.475583
    10  O   -0.306787
    11  H    0.172655
    12  H    0.151356
    13  H    0.062887
    14  H    0.123183
    15  H    0.123147
    16  H    0.140010
    17  H    0.140014
    18  H    0.114279
    19  H    0.151889
    20  H    0.151885
 Sum of Mulliken charges =  -0.00000

 Dipole moment (field-independent basis, Debye):
    X=             -2.0918    Y=              3.6764    Z=              0.0001  Tot=              4.2298
 Quadrupole moment (field-independent basis, Debye-Ang):
   XX=            -83.1449   YY=            -58.9217   ZZ=            -58.7394
   XY=              3.1510   XZ=              0.0024   YZ=             -0.0003

  Exact polarizability: 203.826  -1.354  88.222   0.008  -0.003  59.764
 Approx polarizability: 314.793  -7.055 139.574   0.018  -0.003  97.005

 ******    4 imaginary frequencies (negative Signs) ******

                      1                      2                      3
                      A                      A                      A
 Frequencies --   -153.2511              -110.6582               -55.9363
 Red. masses --      1.0532                 1.8267                 2.5617
 Frc consts  --      0.0146                 0.0132                 0.0047
 IR Inten    --      1.8646                 5.4625                 0.0000

                      4                      5                      6
                      A                      A                      A
 Frequencies --    -35.1121                60.1306                90.1129
 Red. masses --      6.8390                 6.6316                 2.8332
 Frc consts  --      0.0050                 0.0141                 0.0136
 IR Inten    --      0.3866                 3.5605                 4.5540

                      7                      8                      9
                      A                      A                      A
 Frequencies --    117.8279               197.1871               220.6868
 Red. masses --      6.0968                 4.3218                 4.0926
 Frc consts  --      0.0499                 0.0990                 0.1174
 IR Inten    --      9.7005                13.6049                 6.5261

                     10                     11                     12
                      A                      A                      A
 Frequencies --    259.5278               333.7842               377.9794
 Red. masses --      5.9177                 2.8068                 4.0390
 Frc consts  --      0.2348                 0.1842                 0.3400
 IR Inten    --      0.6383                 2.3462                 9.2957

                     13                     14                     15
                      A                      A                      A
 Frequencies --    456.4186               486.7228               525.8344
 Red. masses --      3.2800                 1.4982                 1.7245
 Frc consts  --      0.4026                 0.2091                 0.2809
 IR Inten    --     16.5572                 0.1217                 0.1086

                     16                     17                     18
                      A                      A                      A
 Frequencies --    536.6964               543.9115               701.2705
 Red. masses --      4.7307                 3.5173                 1.5290
 Frc consts  --      0.8028                 0.6131                 0.4430
 IR Inten    --      0.9624                36.6607                15.4596

                     19                     20                     21
                      A                      A                      A
 Frequencies --    767.6107               784.0306               883.8870
 Red. masses --      3.4320                 1.4153                 1.5578
 Frc consts  --      1.1914                 0.5126                 0.7171
 IR Inten    --      4.8567                 5.0895                25.5705

                     22                     23                     24
                      A                      A                      A
 Frequencies --    906.5942               979.0454               987.7065
 Red. masses --      1.8283                 3.0167                 1.2591
 Frc consts  --      0.8854                 1.7037                 0.7237
 IR Inten    --      1.0459                32.0762                 1.7340

                     25                     26                     27
                      A                      A                      A
 Frequencies --   1013.6220              1014.3343              1080.0639
 Red. masses --      2.0091                 1.1713                 3.0967
 Frc consts  --      1.2162                 0.7101                 2.1283
 IR Inten    --     15.7196                23.2724                 0.8718

                     28                     29                     30
                      A                      A                      A
 Frequencies --   1115.5103              1149.6769              1169.3051
 Red. masses --      2.7004                 1.4477                 2.0133
 Frc consts  --      1.9798                 1.1274                 1.6219
 IR Inten    --      7.6404                 0.0005               109.0287

                     31                     32                     33
                      A                      A                      A
 Frequencies --   1207.5960              1270.6018              1280.1259
 Red. masses --      3.6530                 1.2654                 1.5932
 Frc consts  --      3.1386                 1.2037                 1.5383
 IR Inten    --    187.5286                11.0613                28.2494

                     34                     35                     36
                      A                      A                      A
 Frequencies --   1295.2778              1329.0577              1346.6164
 Red. masses --      1.1370                 1.5914                 1.4427
 Frc consts  --      1.1239                 1.6562                 1.5414
 IR Inten    --      1.4190                 2.8434                40.8871

                     37                     38                     39
                      A                      A                      A
 Frequencies --   1377.0499              1396.1157              1441.2416
 Red. masses --      1.2256                 1.3290                 1.0819
 Frc consts  --      1.3693                 1.5263                 1.3241
 IR Inten    --     29.3894                29.6066                 8.8956

                     40                     41                     42
                      A                      A                      A
 Frequencies --   1474.6625              1480.0845              1581.0508
 Red. masses --      1.0787                 1.0483                 5.5195
 Frc consts  --      1.3821                 1.3530                 8.1291
 IR Inten    --      4.2585                 2.7578               157.1007

                     43                     44                     45
                      A                      A                      A
 Frequencies --   1744.2939              1799.8250              2928.8790
 Red. masses --      9.6396                11.9961                 1.0597
 Frc consts  --     17.2801                22.8955                 5.3561
 IR Inten    --    315.4922               185.2184                20.6160

                     46                     47                     48
                      A                      A                      A
 Frequencies --   2957.4757              2984.9575              3007.3554
 Red. masses --      1.0949                 1.0853                 1.0783
 Frc consts  --      5.6425                 5.6972                 5.7458
 IR Inten    --      9.1478                70.0338                23.0618

                     49                     50                     51
                      A                      A                      A
 Frequencies --   3045.6336              3050.3383              3078.7002
 Red. masses --      1.0610                 1.0371                 1.0997
 Frc consts  --      5.7986                 5.6857                 6.1414
 IR Inten    --     11.0106                 2.1589                 6.7988

                     52                     53                     54
                      A                      A                      A
 Frequencies --   3113.4002              3152.5835              3201.0055
 Red. masses --      1.0990                 1.1008                 1.0891
 Frc consts  --      6.2766                 6.4458                 6.5751
 IR Inten    --      4.3819                23.5308                 0.0866

 - Thermochemistry -
 -------------------
 Temperature   298.150 Kelvin.  Pressure   1.00000 Atm.
 Atom     1 has atomic number  6 and mass  12.00000

 Molecular mass:   134.07317 amu.
 Principal axes and moments of inertia in atomic units:
                           1         2         3
     Eigenvalues --   269.936285101.163745338.27787
           X            0.99997   0.00735   0.00000
           Y           -0.00735   0.99997  -0.00001
           Z           -0.00000   0.00001   1.00000
 This molecule is an asymmetric top.
 Rotational symmetry number  1.
 Rotational temperatures (Kelvin)      0.32087     0.01698     0.01623
 Rotational constants (GHZ):           6.68580     0.35379     0.33808
    4 imaginary frequencies ignored.
 Zero-point vibrational energy     402563.8 (Joules/Mol)
                                   96.21505 (Kcal/Mol)
 Warning -- explicit consideration of  13 degrees of freedom as
           vibrations may cause significant error
 Vibrational temperatures:     86.51   129.65   169.53   283.71   317.52
          (Kelvin)            373.40   480.24   543.83   656.68   700.29
                              756.56   772.19   782.57  1008.97  1104.42
                             1128.05  1271.72  1304.39  1408.63  1421.09
                             1458.38  1459.40  1553.97  1604.97  1654.13
                             1682.37  1737.46  1828.11  1841.82  1863.62
                             1912.22  1937.48  1981.27  2008.70  2073.63
                             2121.71  2129.51  2274.78  2509.65  2589.55
                             4214.00  4255.15  4294.69  4326.91  4381.99
                             4388.76  4429.56  4479.49  4535.86  4605.53

 Zero-point correction=                           0.153328 (Hartree/Particle)
 Thermal correction to Energy=                    0.162541
 Thermal correction to Enthalpy=                  0.163485
 Thermal correction to Gibbs Free Energy=         0.118162
 Sum of electronic and zero-point Energies=           -423.788054
 Sum of electronic and thermal Energies=              -423.778842
 Sum of electronic and thermal Enthalpies=            -423.777898
 Sum of electronic and thermal Free Energies=         -423.823221

                     E (Thermal)             CV                S
                      KCal/Mol        Cal/Mol-Kelvin    Cal/Mol-Kelvin
 Total                  101.996             33.784             95.391
 Electronic               0.000              0.000              0.000
 Translational            0.889              2.981             40.592
 Rotational               0.889              2.981             30.376
 Vibrational            100.219             27.822             24.424
 Vibration     1          0.597              1.973              4.453
 Vibration     2          0.602              1.956              3.658
 Vibration     3          0.608              1.935              3.136
 Vibration     4          0.637              1.844              2.159
 Vibration     5          0.647              1.810              1.953
 Vibration     6          0.668              1.747              1.665
 Vibration     7          0.715              1.608              1.242
 Vibration     8          0.748              1.517              1.047
 Vibration     9          0.815              1.347              0.777
 Vibration    10          0.843              1.279              0.692
 Vibration    11          0.881              1.193              0.597
 Vibration    12          0.892              1.169              0.572
 Vibration    13          0.899              1.153              0.557

 Optimization completed.
    -- Stationary point found.
 Normal termination of Gaussian 16 at Mon May 15 21:33:53 2023.
