 Gaussian 16, Revision A.03,
 Gaussian 16:  ES64L-G16RevA.03 25-Dec-2016

 -----------------------------
 # opt freq b3lyp/6-31g(2df,p)
 -----------------------------

 -------------------
 Title Card Required
 -------------------
 Symbolic Z-matrix:
 Charge =  0 Multiplicity = 1

 SCF Done:  E(RB3LYP) =  -877.481335128     A.U. after   17 cycles
 SCF Done:  E(RB3LYP) =  -877.492507786     A.U. after   15 cycles
 SCF Done:  E(RB3LYP) =  -877.496020344     A.U. after   14 cycles
 SCF Done:  E(RB3LYP) =  -877.497922790     A.U. after   14 cycles
 SCF Done:  E(RB3LYP) =  -877.499231719     A.U. after   15 cycles
 SCF Done:  E(RB3LYP) =  -877.499685863     A.U. after   15 cycles
 SCF Done:  E(RB3LYP) =  -877.499875563     A.U. after   14 cycles
 SCF Done:  E(RB3LYP) =  -877.500058901     A.U. after   14 cycles
 SCF Done:  E(RB3LYP) =  -877.500463140     A.U. after   17 cycles
 SCF Done:  E(RB3LYP) =  -877.501017590     A.U. after   14 cycles
 SCF Done:  E(RB3LYP) =  -877.504604286     A.U. after   11 cycles
 SCF Done:  E(RB3LYP) =  -877.504608320     A.U. after   11 cycles
 SCF Done:  E(RB3LYP) =  -877.504609368     A.U. after   10 cycles
 SCF Done:  E(RB3LYP) =  -877.504609771     A.U. after    9 cycles
 SCF Done:  E(RB3LYP) =  -877.504610092     A.U. after    8 cycles
 SCF Done:  E(RB3LYP) =  -877.504610259     A.U. after    8 cycles
 SCF Done:  E(RB3LYP) =  -877.504610423     A.U. after    8 cycles
 SCF Done:  E(RB3LYP) =  -877.504610513     A.U. after    7 cycles
 SCF Done:  E(RB3LYP) =  -877.504610581     A.U. after    8 cycles
 Optimization completed.
    -- Stationary point found.
 Normal termination of Gaussian 16 at Tue May 16 22:17:27 2023.

 ----------------------------------------------------------------------
 #N Geom=AllCheck Guess=TCheck SCRF=Check GenChk RB3LYP/6-31G(2df,p) Fr
 eq
 ----------------------------------------------------------------------

 Structure from the checkpoint file:  "[C]dCCdC1CC1CCCSNdO.chk"
 -------------------
 Title Card Required
 -------------------
 Charge =  0 Multiplicity = 1

                         Standard orientation:
 ---------------------------------------------------------------------
 Center     Atomic      Atomic             Coordinates (Angstroms)
 Number     Number       Type             X           Y           Z
 ---------------------------------------------------------------------
      1          6           0       -5.671269    1.735637    0.172531
      2          6           0       -4.536703    1.240141   -0.096858
      3          6           0       -3.214015    0.828080   -0.452256
      4          6           0       -2.737910   -0.401797   -0.323624
      5          6           0       -2.970829   -1.784462    0.099824
      6          6           0       -1.612173   -1.324486   -0.461389
      7          6           0       -0.397410   -1.224666    0.447144
      8          6           0        0.645809   -0.222735   -0.068941
      9          6           0        1.876876   -0.158449    0.838514
     10         16           0        3.135172    1.036138    0.286830
     11          7           0        4.334822   -0.261184   -0.265121
     12          8           0        5.343351    0.125006   -0.734267
     13          1           0       -5.432175    0.492474    0.392947
     14          1           0       -2.593805    1.624135   -0.857489
     15          1           0       -3.590165   -2.429343   -0.518863
     16          1           0       -3.030300   -2.001532    1.164482
     17          1           0       -1.387322   -1.666533   -1.471840
     18          1           0        0.059904   -2.218282    0.543034
     19          1           0       -0.724185   -0.930946    1.452473
     20          1           0        0.190527    0.771604   -0.145093
     21          1           0        0.961025   -0.499768   -1.081722
     22          1           0        2.398460   -1.122512    0.870237
     23          1           0        1.600468    0.107160    1.862847
 ---------------------------------------------------------------------

 SCF Done:  E(RB3LYP) =  -877.504610581     A.U. after    1 cycles

 The electronic state is 1-A.
 Alpha  occ. eigenvalues --  -88.90248 -19.22975 -14.48740 -10.23209 -10.23136
 Alpha  occ. eigenvalues --  -10.22329 -10.22292 -10.22187 -10.21392 -10.20890
 Alpha  occ. eigenvalues --  -10.20659 -10.19681  -7.96562  -5.92915  -5.92659
 Alpha  occ. eigenvalues --   -5.92241  -1.20207  -0.89766  -0.83904  -0.83260
 Alpha  occ. eigenvalues --   -0.78249  -0.75446  -0.70685  -0.63982  -0.61150
 Alpha  occ. eigenvalues --   -0.60159  -0.57835  -0.52602  -0.51312  -0.50188
 Alpha  occ. eigenvalues --   -0.48992  -0.48483  -0.47702  -0.46874  -0.42854
 Alpha  occ. eigenvalues --   -0.41662  -0.40132  -0.39931  -0.36983  -0.35981
 Alpha  occ. eigenvalues --   -0.35446  -0.34856  -0.31954  -0.31483  -0.27964
 Alpha  occ. eigenvalues --   -0.26501  -0.24907  -0.24239
 Alpha virt. eigenvalues --   -0.09359  -0.04003  -0.02323   0.00903   0.05183
 Alpha virt. eigenvalues --    0.06569   0.08088   0.09142   0.10133   0.10410
 Alpha virt. eigenvalues --    0.11051   0.11840   0.13016   0.14415   0.15576

 Mulliken charges:
               1
     1  C   -0.389242
     2  C    0.181931
     3  C   -0.397110
     4  C    0.390907
     5  C   -0.412337
     6  C   -0.104792
     7  C   -0.219771
     8  C   -0.173371
     9  C   -0.223680
    10  S   -0.007844
    11  N    0.058293
    12  O   -0.158093
    13  H    0.218168
    14  H    0.135460
    15  H    0.135674
    16  H    0.132898
    17  H    0.108637
    18  H    0.109461
    19  H    0.103390
    20  H    0.116028
    21  H    0.115296
    22  H    0.143119
    23  H    0.136978
 Sum of Mulliken charges =  -0.00000

 Dipole moment (field-independent basis, Debye):
    X=              1.3222    Y=             -3.2443    Z=              0.2691  Tot=              3.5137
 Quadrupole moment (field-independent basis, Debye-Ang):
   XX=           -118.2335   YY=            -80.4893   ZZ=            -76.7981
   XY=             13.7452   XZ=              3.6237   YZ=             -1.5009

  Exact polarizability: 190.687 -24.579 125.710 -17.402   0.742  86.976
 Approx polarizability: 275.078 -62.007 220.649 -45.768   9.839 147.734

                      1                      2                      3
                      A                      A                      A
 Frequencies --     20.3685                27.1643                53.0060
 Red. masses --     10.0995                 7.5415                 5.5605
 Frc consts  --      0.0025                 0.0033                 0.0092
 IR Inten    --      1.1098                 2.1312                 0.1808

                      4                      5                      6
                      A                      A                      A
 Frequencies --     93.9477               104.4810               115.9852
 Red. masses --      3.2029                 3.0086                 4.1486
 Frc consts  --      0.0167                 0.0194                 0.0329
 IR Inten    --      0.7510                 2.3505                 2.6065

                      7                      8                      9
                      A                      A                      A
 Frequencies --    122.3820               176.8167               196.0547
 Red. masses --      3.1824                 2.6801                 1.3921
 Frc consts  --      0.0281                 0.0494                 0.0315
 IR Inten    --      3.1448                 4.2873                22.7939

                     10                     11                     12
                      A                      A                      A
 Frequencies --    218.1113               230.0976               244.9212
 Red. masses --      5.5131                 3.5139                 2.9779
 Frc consts  --      0.1545                 0.1096                 0.1052
 IR Inten    --      2.3010                 4.0260                26.8848

                     13                     14                     15
                      A                      A                      A
 Frequencies --    257.0820               325.6171               360.9876
 Red. masses --      4.0186                 3.8136                 4.1558
 Frc consts  --      0.1565                 0.2382                 0.3191
 IR Inten    --      0.9283                 4.8710                32.3475

                     16                     17                     18
                      A                      A                      A
 Frequencies --    400.7764               419.0134               484.4143
 Red. masses --      3.6576                 2.9521                 2.3406
 Frc consts  --      0.3461                 0.3054                 0.3236
 IR Inten    --     38.2038                 6.3965                 2.6206

                     19                     20                     21
                      A                      A                      A
 Frequencies --    505.7266               585.0923               662.9580
 Red. masses --      2.5784                 3.3574                 6.6756
 Frc consts  --      0.3885                 0.6772                 1.7287
 IR Inten    --      2.1178                 1.0765               121.2410

                     22                     23                     24
                      A                      A                      A
 Frequencies --    733.3441               741.1321               789.0529
 Red. masses --      1.3579                 2.9328                 2.3449
 Frc consts  --      0.4303                 0.9491                 0.8602
 IR Inten    --      2.6907                 5.9898                 2.0455

                     25                     26                     27
                      A                      A                      A
 Frequencies --    817.9476               840.0376               867.5429
 Red. masses --      1.4459                 1.5838                 1.8988
 Frc consts  --      0.5700                 0.6585                 0.8420
 IR Inten    --      5.5933                13.2654                 2.0314

                     28                     29                     30
                      A                      A                      A
 Frequencies --    958.5242               974.6876               993.4421
 Red. masses --      3.4901                 2.7138                 1.2238
 Frc consts  --      1.8893                 1.5190                 0.7116
 IR Inten    --      6.8534                 0.9968                 3.5879

                     31                     32                     33
                      A                      A                      A
 Frequencies --   1032.9439              1042.6384              1053.5915
 Red. masses --      2.6532                 2.8446                 2.0698
 Frc consts  --      1.6679                 1.8219                 1.3537
 IR Inten    --      4.1914                 1.5860                 0.0947

                     34                     35                     36
                      A                      A                      A
 Frequencies --   1067.0103              1090.0496              1115.2161
 Red. masses --      1.6369                 1.7702                 1.2370
 Frc consts  --      1.0980                 1.2393                 0.9064
 IR Inten    --      5.9182                 2.1121                 0.4670

                     37                     38                     39
                      A                      A                      A
 Frequencies --   1158.5649              1188.4768              1243.3073
 Red. masses --      2.0649                 1.5165                 1.2407
 Frc consts  --      1.6330                 1.2621                 1.1300
 IR Inten    --      8.0988                 1.9726                20.6871

                     40                     41                     42
                      A                      A                      A
 Frequencies --   1289.9751              1314.1957              1330.5215
 Red. masses --      1.2920                 1.2790                 1.0978
 Frc consts  --      1.2667                 1.3015                 1.1450
 IR Inten    --      0.0801                 4.2482                 2.1818

                     43                     44                     45
                      A                      A                      A
 Frequencies --   1331.7326              1374.6047              1393.8103
 Red. masses --      1.3459                 1.4326                 1.6197
 Frc consts  --      1.4064                 1.5949                 1.8540
 IR Inten    --      2.3520                11.8667                 1.1768

                     46                     47                     48
                      A                      A                      A
 Frequencies --   1456.8684              1458.6662              1480.6059
 Red. masses --      1.0891                 1.1682                 1.0776
 Frc consts  --      1.3619                 1.4645                 1.3919
 IR Inten    --      2.6703                 5.1281                 0.6276

                     49                     50                     51
                      A                      A                      A
 Frequencies --   1499.8790              1701.6969              1824.0123
 Red. masses --      1.0960                14.7747                10.4507
 Frc consts  --      1.4527                25.2077                20.4857
 IR Inten    --      3.7497               589.2979                 0.1119

                     52                     53                     54
                      A                      A                      A
 Frequencies --   1977.4413              2388.8390              3016.1322
 Red. masses --     11.2279                 1.0552                 1.0589
 Frc consts  --     25.8677                 3.5478                 5.6753
 IR Inten    --     30.4270                15.2144                18.3138

                     55                     56                     57
                      A                      A                      A
 Frequencies --   3032.2941              3040.9013              3051.5250
 Red. masses --      1.0590                 1.0603                 1.1002
 Frc consts  --      5.7370                 5.7770                 6.0359
 IR Inten    --      5.2567                28.3998                 4.8518

                     58                     59                     60
                      A                      A                      A
 Frequencies --   3075.2069              3100.9798              3101.2926
 Red. masses --      1.1029                 1.0578                 1.0989
 Frc consts  --      6.1453                 5.9933                 6.2269
 IR Inten    --     15.9594                 7.3189                 7.0987

                     61                     62                     63
                      A                      A                      A
 Frequencies --   3106.6493              3154.9927              3180.3306
 Red. masses --      1.0879                 1.0869                 1.1144
 Frc consts  --      6.1861                 6.3745                 6.6413
 IR Inten    --     27.7549                 0.6743                 5.7605

 - Thermochemistry -
 -------------------
 Temperature   298.150 Kelvin.  Pressure   1.00000 Atm.
 Atom     1 has atomic number  6 and mass  12.00000

 Molecular mass:   181.05614 amu.
 Principal axes and moments of inertia in atomic units:
                           1         2         3
     Eigenvalues --   872.400577783.538288352.33323
           X            0.99999   0.00438   0.00150
           Y           -0.00435   0.99984  -0.01742
           Z           -0.00158   0.01741   0.99985
 This molecule is an asymmetric top.
 Rotational symmetry number  1.
 Warning -- assumption of classical behavior for rotation
           may cause significant error
 Rotational temperatures (Kelvin)      0.09928     0.01113     0.01037
 Rotational constants (GHZ):           2.06871     0.23187     0.21608
 Zero-point vibrational energy     454555.0 (Joules/Mol)
                                  108.64126 (Kcal/Mol)
 Warning -- explicit consideration of  20 degrees of freedom as
           vibrations may cause significant error
 Vibrational temperatures:     29.31    39.08    76.26   135.17   150.32
          (Kelvin)            166.88   176.08   254.40   282.08   313.81
                              331.06   352.39   369.88   468.49   519.38
                              576.63   602.87   696.96   727.63   841.82
                              953.85  1055.12  1066.32  1135.27  1176.84
                             1208.63  1248.20  1379.10  1402.36  1429.34
                             1486.18  1500.12  1515.88  1535.19  1568.34
                             1604.55  1666.92  1709.95  1788.84  1855.99
                             1890.83  1914.32  1916.07  1977.75  2005.38
                             2096.11  2098.70  2130.26  2157.99  2448.36
                             2624.35  2845.10  3437.01  4339.54  4362.79
                             4375.18  4390.46  4424.54  4461.62  4462.07
                             4469.78  4539.33  4575.79

 Zero-point correction=                           0.173131 (Hartree/Particle)
 Thermal correction to Energy=                    0.187627
 Thermal correction to Enthalpy=                  0.188571
 Thermal correction to Gibbs Free Energy=         0.129180
 Sum of electronic and zero-point Energies=           -877.331480
 Sum of electronic and thermal Energies=              -877.316984
 Sum of electronic and thermal Enthalpies=            -877.316040
 Sum of electronic and thermal Free Energies=         -877.375430

                     E (Thermal)             CV                S
                      KCal/Mol        Cal/Mol-Kelvin    Cal/Mol-Kelvin
 Total                  117.738             49.917            124.999
 Electronic               0.000              0.000              0.000
 Translational            0.889              2.981             41.488
 Rotational               0.889              2.981             32.406
 Vibrational            115.960             43.955             51.105
 Vibration     1          0.593              1.986              6.598
 Vibration     2          0.593              1.984              6.026
 Vibration     3          0.596              1.976              4.702
 Vibration     4          0.603              1.954              3.576
 Vibration     5          0.605              1.946              3.369
 Vibration     6          0.608              1.936              3.166
 Vibration     7          0.610              1.930              3.062
 Vibration     8          0.628              1.871              2.362
 Vibration     9          0.636              1.845              2.170
 Vibration    10          0.646              1.813              1.975
 Vibration    11          0.652              1.795              1.878
 Vibration    12          0.660              1.771              1.767
 Vibration    13          0.667              1.751              1.682
 Vibration    14          0.710              1.624              1.282
 Vibration    15          0.735              1.553              1.118
 Vibration    16          0.767              1.468              0.960
 Vibration    17          0.782              1.429              0.895
 Vibration    18          0.841              1.285              0.698
 Vibration    19          0.861              1.237              0.644
 Vibration    20          0.942              1.064              0.476

                           ! Non-Optimized Parameters !
 Normal termination of Gaussian 16 at Tue May 16 22:58:39 2023.
