 Gaussian 16, Revision A.03,
 Gaussian 16:  ES64L-G16RevA.03 25-Dec-2016

 -----------------------------
 # opt freq b3lyp/6-31g(2df,p)
 -----------------------------

 -------------------
 Title Card Required
 -------------------
 Symbolic Z-matrix:
 Charge =  0 Multiplicity = 1

 SCF Done:  E(RB3LYP) =  -592.612020235     A.U. after   17 cycles
 SCF Done:  E(RB3LYP) =  -592.629384657     A.U. after   15 cycles
 SCF Done:  E(RB3LYP) =  -592.636606520     A.U. after   14 cycles
 SCF Done:  E(RB3LYP) =  -592.638916579     A.U. after   13 cycles
 SCF Done:  E(RB3LYP) =  -592.640364411     A.U. after   14 cycles
 SCF Done:  E(RB3LYP) =  -592.641571438     A.U. after   13 cycles
 SCF Done:  E(RB3LYP) =  -592.643884996     A.U. after   14 cycles
 SCF Done:  E(RB3LYP) =  -592.645670678     A.U. after   14 cycles
 SCF Done:  E(RB3LYP) =  -592.646139505     A.U. after   13 cycles
 SCF Done:  E(RB3LYP) =  -592.646323111     A.U. after   13 cycles
 SCF Done:  E(RB3LYP) =  -592.649459889     A.U. after   13 cycles
 SCF Done:  E(RB3LYP) =  -592.649623325     A.U. after   11 cycles
 SCF Done:  E(RB3LYP) =  -592.649629242     A.U. after   12 cycles
 SCF Done:  E(RB3LYP) =  -592.649646608     A.U. after   11 cycles
 SCF Done:  E(RB3LYP) =  -592.649652595     A.U. after   10 cycles
 SCF Done:  E(RB3LYP) =  -592.649654051     A.U. after   10 cycles
 SCF Done:  E(RB3LYP) =  -592.649654202     A.U. after    9 cycles
 SCF Done:  E(RB3LYP) =  -592.649654369     A.U. after    8 cycles
 SCF Done:  E(RB3LYP) =  -592.649654372     A.U. after    7 cycles
 Optimization completed.
    -- Stationary point found.
 Normal termination of Gaussian 16 at Thu May 18 18:20:20 2023.

 ----------------------------------------------------------------------
 #N Geom=AllCheck Guess=TCheck SCRF=Check GenChk RB3LYP/6-31G(2df,p) Fr
 eq
 ----------------------------------------------------------------------

 Structure from the checkpoint file:  "[C]dCqCCrNOC1dCCdCOCdC1.chk"
 -------------------
 Title Card Required
 -------------------
 Charge =  0 Multiplicity = 1

                         Standard orientation:
 ---------------------------------------------------------------------
 Center     Atomic      Atomic             Coordinates (Angstroms)
 Number     Number       Type             X           Y           Z
 ---------------------------------------------------------------------
      1          6           0        3.218476   -1.427800    0.722049
      2          6           0        2.664577   -0.290000    0.387096
      3          6           0        2.868552    0.955714   -0.398365
      4          6           0        4.216861    0.982040   -1.125061
      5          7           0        1.414459   -0.524952    1.098515
      6          8           0        0.437996   -1.128996    0.229419
      7          6           0       -0.723104   -0.390099    0.102323
      8          6           0       -1.004557    0.741912    0.778070
      9          6           0       -2.205791    1.528238    0.548013
     10          6           0       -3.387366    1.076083    0.124141
     11          8           0       -3.684880   -0.272071   -0.067174
     12          6           0       -2.888423   -0.895763   -0.998658
     13          6           0       -1.559114   -0.997007   -0.926756
     14          1           0        2.776293    1.815010    0.278343
     15          1           0        2.044885    1.050426   -1.117723
     16          1           0        5.047894    0.914103   -0.416547
     17          1           0        4.328759    1.911116   -1.689870
     18          1           0        4.302195    0.145245   -1.824158
     19          1           0        1.521620   -1.175774    1.877782
     20          1           0       -0.271856    1.129642    1.474001
     21          1           0       -2.137447    2.598517    0.724978
     22          1           0       -4.236252    1.722362   -0.074534
     23          1           0       -3.453917   -1.350473   -1.808449
     24          1           0       -1.048970   -1.576882   -1.688511
 ---------------------------------------------------------------------

 SCF Done:  E(RB3LYP) =  -592.649654372     A.U. after    1 cycles

 The electronic state is 1-A.
 Alpha  occ. eigenvalues --  -19.20782 -19.17030 -14.43174 -10.25281 -10.24931
 Alpha  occ. eigenvalues --  -10.23547 -10.22097 -10.21948 -10.21109 -10.19237
 Alpha  occ. eigenvalues --  -10.18927 -10.18874 -10.18321  -1.10827  -1.06779
 Alpha  occ. eigenvalues --   -0.91976  -0.81391  -0.79334  -0.78461  -0.71510
 Alpha  occ. eigenvalues --   -0.70128  -0.65724  -0.64902  -0.57689  -0.55655
 Alpha  occ. eigenvalues --   -0.55228  -0.53494  -0.49121  -0.48326  -0.46742
 Alpha  occ. eigenvalues --   -0.46251  -0.45668  -0.43567  -0.43239  -0.39686
 Alpha  occ. eigenvalues --   -0.38966  -0.38016  -0.37734  -0.37283  -0.36841
 Alpha  occ. eigenvalues --   -0.31686  -0.30651  -0.28868  -0.28165  -0.27182
 Alpha  occ. eigenvalues --   -0.25606  -0.19913
 Alpha virt. eigenvalues --   -0.06491  -0.03704   0.01792   0.03080   0.07215
 Alpha virt. eigenvalues --    0.09379   0.10274   0.10515   0.11036   0.12511
 Alpha virt. eigenvalues --    0.13507   0.13838   0.14899   0.15498   0.15726

 Mulliken charges:
               1
     1  C   -0.263553
     2  C    0.331633
     3  C   -0.286486
     4  C   -0.385335
     5  N   -0.211746
     6  O   -0.284213
     7  C    0.361260
     8  C   -0.265888
     9  C   -0.102897
    10  C   -0.000007
    11  O   -0.231011
    12  C    0.034502
    13  C   -0.193484
    14  H    0.124833
    15  H    0.131631
    16  H    0.132130
    17  H    0.122095
    18  H    0.135832
    19  H    0.290810
    20  H    0.109051
    21  H    0.102062
    22  H    0.112241
    23  H    0.118379
    24  H    0.118160
 Sum of Mulliken charges =  -0.00000

 Dipole moment (field-independent basis, Debye):
    X=             -0.1407    Y=              2.6696    Z=             -1.1043  Tot=              2.8924
 Quadrupole moment (field-independent basis, Debye-Ang):
   XX=            -79.2447   YY=            -76.5768   ZZ=            -72.2238
   XY=              6.0489   XZ=              1.1890   YZ=              2.3345

  Exact polarizability: 170.085 -14.503 110.506   7.842   9.423  87.311
 Approx polarizability: 248.756 -29.098 185.661  12.615  22.966 139.227

                      1                      2                      3
                      A                      A                      A
 Frequencies --     15.7022                35.5357                66.3316
 Red. masses --      4.6417                 4.1271                 2.1524
 Frc consts  --      0.0007                 0.0031                 0.0056
 IR Inten    --      0.2720                 0.1393                 0.3970

                      4                      5                      6
                      A                      A                      A
 Frequencies --     99.6037               125.4344               164.2130
 Red. masses --      4.2838                 6.6000                 4.2313
 Frc consts  --      0.0250                 0.0612                 0.0672
 IR Inten    --      3.9403                 2.2863                 2.8024

                      7                      8                      9
                      A                      A                      A
 Frequencies --    198.3753               210.1078               218.6608
 Red. masses --      4.6817                 3.8311                 1.6314
 Frc consts  --      0.1086                 0.0996                 0.0460
 IR Inten    --      3.4815                 4.2844                 1.1473

                     10                     11                     12
                      A                      A                      A
 Frequencies --    242.2137               316.9156               357.2661
 Red. masses --      2.1306                 3.7904                 5.3001
 Frc consts  --      0.0736                 0.2243                 0.3986
 IR Inten    --      2.8634                 3.0263                 2.4249

                     13                     14                     15
                      A                      A                      A
 Frequencies --    382.6158               413.9407               442.3640
 Red. masses --      4.5648                 4.2346                 3.9134
 Frc consts  --      0.3937                 0.4275                 0.4512
 IR Inten    --      1.2905                 4.2597                 9.7353

                     16                     17                     18
                      A                      A                      A
 Frequencies --    500.0410               528.3809               561.6423
 Red. masses --      4.1442                 3.0300                 5.3771
 Frc consts  --      0.6105                 0.4984                 0.9994
 IR Inten    --      3.6306                32.7719                 1.9591

                     19                     20                     21
                      A                      A                      A
 Frequencies --    654.2162               749.2950               764.4387
 Red. masses --      3.6741                 3.1155                 1.5319
 Frc consts  --      0.9265                 1.0306                 0.5274
 IR Inten    --      3.3683                43.1588                 6.9970

                     22                     23                     24
                      A                      A                      A
 Frequencies --    769.8585               788.3797               794.0989
 Red. masses --      1.9385                 2.1723                 1.5952
 Frc consts  --      0.6769                 0.7955                 0.5927
 IR Inten    --     88.0798                52.4910                 9.2157

                     25                     26                     27
                      A                      A                      A
 Frequencies --    812.2640               845.7270               873.7918
 Red. masses --      2.2650                 2.4185                 1.6205
 Frc consts  --      0.8805                 1.0192                 0.7290
 IR Inten    --      7.6565                20.0621                28.8897

                     28                     29                     30
                      A                      A                      A
 Frequencies --    904.5493               917.0526               933.9117
 Red. masses --      2.9973                 1.6984                 2.8607
 Frc consts  --      1.4449                 0.8416                 1.4701
 IR Inten    --      3.6001                10.2188                36.8779

                     31                     32                     33
                      A                      A                      A
 Frequencies --    939.1915               963.1194              1003.8288
 Red. masses --      1.6231                 2.8808                 2.2723
 Frc consts  --      0.8435                 1.5744                 1.3491
 IR Inten    --      5.0450                34.1516                 2.4963

                     34                     35                     36
                      A                      A                      A
 Frequencies --   1022.8547              1067.9404              1098.4736
 Red. masses --      2.7776                 3.0841                 2.1704
 Frc consts  --      1.7122                 2.0724                 1.5430
 IR Inten    --     13.4951                25.9401                 2.7335

                     37                     38                     39
                      A                      A                      A
 Frequencies --   1108.5992              1114.5327              1164.9886
 Red. masses --      1.7422                 1.5530                 5.8895
 Frc consts  --      1.2615                 1.1366                 4.7095
 IR Inten    --     33.5265                 3.3399               218.0933

                     40                     41                     42
                      A                      A                      A
 Frequencies --   1237.3308              1277.6287              1279.3922
 Red. masses --      1.1267                 1.1927                 1.4057
 Frc consts  --      1.0163                 1.1471                 1.3557
 IR Inten    --      8.1759                 1.9585                24.5456

                     43                     44                     45
                      A                      A                      A
 Frequencies --   1338.3200              1359.6631              1404.5813
 Red. masses --      1.3353                 1.5488                 1.1628
 Frc consts  --      1.4091                 1.6870                 1.3516
 IR Inten    --      8.6055                 5.2162                 7.1312

                     46                     47                     48
                      A                      A                      A
 Frequencies --   1410.9603              1415.4294              1435.1107
 Red. masses --      1.5578                 1.2346                 1.5758
 Frc consts  --      1.8272                 1.4573                 1.9122
 IR Inten    --      4.6172                 1.7055                22.8075

                     49                     50                     51
                      A                      A                      A
 Frequencies --   1474.2508              1497.7603              1506.6438
 Red. masses --      1.0787                 1.0385                 1.0552
 Frc consts  --      1.3813                 1.3726                 1.4113
 IR Inten    --      2.9135                 5.7042                 3.4557

                     52                     53                     54
                      A                      A                      A
 Frequencies --   1662.6625              1682.5565              1712.5698
 Red. masses --      8.9089                 6.9274                 6.2448
 Frc consts  --     14.5105                11.5548                10.7911
 IR Inten    --     78.0653                55.9591                87.9842

                     55                     56                     57
                      A                      A                      A
 Frequencies --   1794.0085              3022.6644              3045.8153
 Red. masses --      9.2735                 1.0592                 1.0358
 Frc consts  --     17.5850                 5.7017                 5.6617
 IR Inten    --     15.0316                10.9900                20.4098

                     58                     59                     60
                      A                      A                      A
 Frequencies --   3050.9435              3116.0301              3122.3015
 Red. masses --      1.1001                 1.1022                 1.1022
 Frc consts  --      6.0334                 6.3053                 6.3309
 IR Inten    --      8.1717                21.1951                19.3344

                     61                     62                     63
                      A                      A                      A
 Frequencies --   3156.6699              3159.1421              3187.4616
 Red. masses --      1.0844                 1.0865                 1.0969
 Frc consts  --      6.3667                 6.3890                 6.5661
 IR Inten    --      5.5777                14.7045                27.6955

                     64                     65                     66
                      A                      A                      A
 Frequencies --   3194.2296              3208.9785              3472.0453
 Red. masses --      1.0935                 1.0883                 1.0747
 Frc consts  --      6.5737                 6.6027                 7.6332
 IR Inten    --      7.1686                 3.4953                30.1726

 - Thermochemistry -
 -------------------
 Temperature   298.150 Kelvin.  Pressure   1.00000 Atm.
 Atom     1 has atomic number  6 and mass  12.00000

 Molecular mass:   177.07898 amu.
 Principal axes and moments of inertia in atomic units:
                           1         2         3
     Eigenvalues --   953.943414725.446064990.94969
           X            0.99989   0.01186  -0.00834
           Y           -0.01169   0.99973   0.01996
           Z            0.00858  -0.01986   0.99977
 This molecule is an asymmetric top.
 Rotational symmetry number  1.
 Warning -- assumption of classical behavior for rotation
           may cause significant error
 Rotational temperatures (Kelvin)      0.09080     0.01833     0.01735
 Rotational constants (GHZ):           1.89187     0.38192     0.36160
 Zero-point vibrational energy     492835.2 (Joules/Mol)
                                  117.79043 (Kcal/Mol)
 Warning -- explicit consideration of  18 degrees of freedom as
           vibrations may cause significant error
 Vibrational temperatures:     22.59    51.13    95.44   143.31   180.47
          (Kelvin)            236.27   285.42   302.30   314.60   348.49
                              455.97   514.03   550.50   595.57   636.46
                              719.45   760.22   808.08   941.27  1078.07
                             1099.86  1107.65  1134.30  1142.53  1168.67
                             1216.81  1257.19  1301.44  1319.43  1343.69
                             1351.29  1385.71  1444.29  1471.66  1536.53
                             1580.46  1595.03  1603.56  1676.16  1780.24
                             1838.22  1840.76  1925.54  1956.25  2020.88
                             2030.06  2036.49  2064.80  2121.12  2154.94
                             2167.72  2392.20  2420.82  2464.01  2581.18
                             4348.94  4382.25  4389.63  4483.27  4492.30
                             4541.74  4545.30  4586.05  4595.78  4617.00
                             4995.50

 Zero-point correction=                           0.187711 (Hartree/Particle)
 Thermal correction to Energy=                    0.200860
 Thermal correction to Enthalpy=                  0.201804
 Thermal correction to Gibbs Free Energy=         0.146169
 Sum of electronic and zero-point Energies=           -592.461943
 Sum of electronic and thermal Energies=              -592.448794
 Sum of electronic and thermal Enthalpies=            -592.447850
 Sum of electronic and thermal Free Energies=         -592.503485

                     E (Thermal)             CV                S
                      KCal/Mol        Cal/Mol-Kelvin    Cal/Mol-Kelvin
 Total                  126.041             48.049            117.094
 Electronic               0.000              0.000              0.000
 Translational            0.889              2.981             41.421
 Rotational               0.889              2.981             31.487
 Vibrational            124.264             42.087             44.185
 Vibration     1          0.593              1.986              7.115
 Vibration     2          0.594              1.982              5.494
 Vibration     3          0.598              1.970              4.259
 Vibration     4          0.604              1.949              3.462
 Vibration     5          0.610              1.928              3.015
 Vibration     6          0.623              1.886              2.501
 Vibration     7          0.637              1.842              2.148
 Vibration     8          0.642              1.825              2.043
 Vibration     9          0.646              1.813              1.970
 Vibration    10          0.658              1.776              1.787
 Vibration    11          0.704              1.641              1.326
 Vibration    12          0.732              1.560              1.134
 Vibration    13          0.752              1.507              1.029
 Vibration    14          0.778              1.440              0.913
 Vibration    15          0.802              1.378              0.819
 Vibration    16          0.855              1.250              0.658
 Vibration    17          0.883              1.187              0.591
 Vibration    18          0.917              1.114              0.521

 Optimization completed.
    -- Stationary point found.
 Normal termination of Gaussian 16 at Thu May 18 19:31:37 2023.
