 Gaussian 16, Revision A.03,
 Gaussian 16:  ES64L-G16RevA.03 25-Dec-2016

 -----------------------------
 # opt freq b3lyp/6-31g(2df,p)
 -----------------------------

 -------------------
 Title Card Required
 -------------------
 Symbolic Z-matrix:
 Charge =  0 Multiplicity = 2

 SCF Done:  E(UB3LYP) =  -464.790921664     A.U. after   27 cycles
 SCF Done:  E(UB3LYP) =  -464.835314893     A.U. after   19 cycles
 SCF Done:  E(UB3LYP) =  -464.847993515     A.U. after   21 cycles
 SCF Done:  E(UB3LYP) =  -464.846492869     A.U. after   21 cycles
 SCF Done:  E(UB3LYP) =  -464.844021767     A.U. after   19 cycles
 SCF Done:  E(UB3LYP) =  -464.841163756     A.U. after   20 cycles
 SCF Done:  E(UB3LYP) =  -464.850442402     A.U. after   16 cycles
 SCF Done:  E(UB3LYP) =  -464.854266788     A.U. after   18 cycles
 SCF Done:  E(UB3LYP) =  -464.855172012     A.U. after   21 cycles
 SCF Done:  E(UB3LYP) =  -464.855343797     A.U. after   15 cycles
 SCF Done:  E(UB3LYP) =  -464.855520816     A.U. after   14 cycles
 SCF Done:  E(UB3LYP) =  -464.855538732     A.U. after   12 cycles
 SCF Done:  E(UB3LYP) =  -464.855539396     A.U. after   10 cycles
 SCF Done:  E(UB3LYP) =  -464.855539416     A.U. after    9 cycles
 Optimization completed.
    -- Stationary point found.
 Normal termination of Gaussian 16 at Fri May 19 08:53:29 2023.

 ----------------------------------------------------------------------
 #N Geom=AllCheck Guess=TCheck SCRF=Check GenChk UB3LYP/6-31G(2df,p) Fr
 eq
 ----------------------------------------------------------------------

 Structure from the checkpoint file:  "[C]tC[C]CdCCCCdCCCdC.chk"
 -------------------
 Title Card Required
 -------------------
 Charge =  0 Multiplicity = 2

                         Standard orientation:
 ---------------------------------------------------------------------
 Center     Atomic      Atomic             Coordinates (Angstroms)
 Number     Number       Type             X           Y           Z
 ---------------------------------------------------------------------
      1          6           0       -7.227705    0.574991    0.000016
      2          6           0       -5.949114    0.272847    0.000013
      3          6           0       -4.696162    0.082597    0.000009
      4          6           0       -3.477542   -0.604204    0.000015
      5          6           0       -2.289870    0.042293   -0.000014
      6          6           0       -0.948413   -0.625695   -0.000014
      7          6           0        0.230737    0.355567   -0.000009
      8          6           0        1.572197   -0.343864   -0.000010
      9          6           0        2.751957    0.270331   -0.000028
     10          6           0        4.097711   -0.421467   -0.000031
     11          6           0        5.277261    0.527553    0.000001
     12          6           0        6.554655    0.163151    0.000059
     13          1           0       -3.492968   -1.696724    0.000044
     14          1           0       -2.310924    1.130719   -0.000041
     15          1           0       -0.880991   -1.291426   -0.872354
     16          1           0       -0.880993   -1.291433    0.872321
     17          1           0        0.145605    1.012202    0.875903
     18          1           0        0.145607    1.012208   -0.875917
     19          1           0        1.545128   -1.434296    0.000007
     20          1           0        2.774338    1.360769   -0.000044
     21          1           0        4.167467   -1.085383   -0.872195
     22          1           0        4.167451   -1.085425    0.872101
     23          1           0        5.034661    1.589466   -0.000029
     24          1           0        6.856984   -0.880843    0.000092
     25          1           0        7.354368    0.895566    0.000075
 ---------------------------------------------------------------------

 SCF Done:  E(UB3LYP) =  -464.855539416     A.U. after    1 cycles

 The electronic state is 2-A.
 Alpha  occ. eigenvalues --  -10.24779 -10.23855 -10.23335 -10.22189 -10.21027
 Alpha  occ. eigenvalues --  -10.20339 -10.20024 -10.19577 -10.19474 -10.19472
 Alpha  occ. eigenvalues --  -10.18063 -10.18010  -0.85790  -0.82627  -0.80548
 Alpha  occ. eigenvalues --   -0.77796  -0.75071  -0.70529  -0.66905  -0.63293
 Alpha  occ. eigenvalues --   -0.60182  -0.56969  -0.55862  -0.52763  -0.48483
 Alpha  occ. eigenvalues --   -0.48421  -0.47070  -0.44906  -0.43590  -0.41883
 Alpha  occ. eigenvalues --   -0.41215  -0.39681  -0.38798  -0.37187  -0.35867
 Alpha  occ. eigenvalues --   -0.34886  -0.34718  -0.33086  -0.27762  -0.27312
 Alpha  occ. eigenvalues --   -0.27187  -0.24697  -0.19447
 Alpha virt. eigenvalues --   -0.12195  -0.01414  -0.00176   0.01930   0.07349
 Alpha virt. eigenvalues --    0.08338   0.09132   0.09881   0.11415   0.12286
 Alpha virt. eigenvalues --    0.12692   0.13369   0.13805   0.15624   0.16697

  Beta  occ. eigenvalues --  -10.24741 -10.23379 -10.23016 -10.22186 -10.21028
  Beta  occ. eigenvalues --  -10.20024 -10.19576 -10.19506 -10.19474 -10.19472
  Beta  occ. eigenvalues --  -10.18292 -10.18010  -0.85519  -0.82434  -0.80209
  Beta  occ. eigenvalues --   -0.77395  -0.74813  -0.70147  -0.65871  -0.62721
  Beta  occ. eigenvalues --   -0.59802  -0.56950  -0.55829  -0.52270  -0.48490
  Beta  occ. eigenvalues --   -0.48107  -0.47039  -0.44744  -0.43591  -0.41811
  Beta  occ. eigenvalues --   -0.41092  -0.39661  -0.38707  -0.37158  -0.35547
  Beta  occ. eigenvalues --   -0.34856  -0.34714  -0.29838  -0.27750  -0.27187
  Beta  occ. eigenvalues --   -0.25755  -0.24697
  Beta virt. eigenvalues --   -0.11338  -0.07697  -0.01267  -0.00030   0.01938
  Beta virt. eigenvalues --    0.08356   0.09124   0.09451   0.09929   0.11565
  Beta virt. eigenvalues --    0.12417   0.12717   0.13470   0.14158   0.16007

 Mulliken charges and spin densities:
               1          2
     1  C   -0.272475   0.617135
     2  C    0.138940  -0.180446
     3  C   -0.001244   0.552223
     4  C   -0.181723  -0.031276
     5  C    0.018525   0.002213
     6  C   -0.272307   0.003177
     7  C   -0.247400  -0.000249
     8  C   -0.062224   0.000121
     9  C   -0.060368  -0.000059
    10  C   -0.274320   0.000004
    11  C    0.035390   0.000001
    12  C   -0.334680  -0.000000
    13  H    0.120374   0.035806
    14  H    0.132713   0.002365
    15  H    0.140324  -0.000531
    16  H    0.140323  -0.000531
    17  H    0.122582   0.000026
    18  H    0.122581   0.000026
    19  H    0.081116   0.000001
    20  H    0.084813   0.000002
    21  H    0.131229  -0.000003
    22  H    0.131227  -0.000003
    23  H    0.090239  -0.000000
    24  H    0.102699   0.000000
    25  H    0.113667   0.000000
 Sum of Mulliken charges =  -0.00000   1.00000

 Dipole moment (field-independent basis, Debye):
    X=              7.1530    Y=             -1.5378    Z=             -0.0000  Tot=              7.3164
 Quadrupole moment (field-independent basis, Debye-Ang):
   XX=           -136.3563   YY=            -68.5452   ZZ=            -73.4524
   XY=              7.9188   XZ=              0.0001   YZ=             -0.0001

  Exact polarizability: 278.487 -10.546 100.757   0.000  -0.001  69.616
 Approx polarizability: 401.002 -22.097 155.706  -0.000  -0.001 110.210

 ******    4 imaginary frequencies (negative Signs) ******

                      1                      2                      3
                      A                      A                      A
 Frequencies --   -169.1866              -128.6188              -107.6324
 Red. masses --      1.7964                 1.8800                 2.1603
 Frc consts  --      0.0303                 0.0183                 0.0147
 IR Inten    --      0.0714                 0.3311                 0.3861

                      4                      5                      6
                      A                      A                      A
 Frequencies --    -57.3142                 9.6616                35.6066
 Red. masses --      2.2354                 4.3230                 6.0963
 Frc consts  --      0.0043                 0.0002                 0.0046
 IR Inten    --      0.0067                 3.1306                 4.2918

                      7                      8                      9
                      A                      A                      A
 Frequencies --     66.8084                79.2257               161.6348
 Red. masses --      3.0492                 5.7580                 4.2740
 Frc consts  --      0.0080                 0.0213                 0.0658
 IR Inten    --      0.1964                 1.3050                 0.8126

                     10                     11                     12
                      A                      A                      A
 Frequencies --    210.4325               213.7954               234.7304
 Red. masses --      3.8378                 6.4664                 4.0266
 Frc consts  --      0.1001                 0.1741                 0.1307
 IR Inten    --      0.0653                 0.0246                13.9791

                     13                     14                     15
                      A                      A                      A
 Frequencies --    288.2163               374.9914               409.3880
 Red. masses --      3.5791                 5.7840                 4.6094
 Frc consts  --      0.1752                 0.4792                 0.4552
 IR Inten    --      0.7341                 8.4090                 4.6456

                     16                     17                     18
                      A                      A                      A
 Frequencies --    423.7555               433.6650               525.3626
 Red. masses --      4.5952                 4.2076                 3.6125
 Frc consts  --      0.4862                 0.4662                 0.5875
 IR Inten    --      0.2973                 0.2265                 0.7410

                     19                     20                     21
                      A                      A                      A
 Frequencies --    544.3341               545.5977               685.1486
 Red. masses --      1.3138                 3.0396                 1.2718
 Frc consts  --      0.2294                 0.5331                 0.3518
 IR Inten    --      6.6751                 0.1924                 5.7791

                     22                     23                     24
                      A                      A                      A
 Frequencies --    758.7134               865.7806               911.9695
 Red. masses --      1.6014                 1.6575                 2.8356
 Frc consts  --      0.5431                 0.7320                 1.3895
 IR Inten    --      0.0000                 0.4063                 6.6369

                     25                     26                     27
                      A                      A                      A
 Frequencies --    926.1165               935.1427               961.3849
 Red. masses --      3.0297                 1.4030                 1.6150
 Frc consts  --      1.5310                 0.7229                 0.8795
 IR Inten    --     10.4134                16.9022                 9.6342

                     28                     29                     30
                      A                      A                      A
 Frequencies --    979.7670              1007.1042              1032.9378
 Red. masses --      1.1840                 1.0999                 1.1308
 Frc consts  --      0.6697                 0.6573                 0.7109
 IR Inten    --     25.9626                10.9889                14.0314

                     31                     32                     33
                      A                      A                      A
 Frequencies --   1038.5598              1051.7073              1054.3746
 Red. masses --      3.9681                 1.7388                 3.3922
 Frc consts  --      2.5217                 1.1331                 2.2219
 IR Inten    --      1.8344                 4.8090                 9.3672

                     34                     35                     36
                      A                      A                      A
 Frequencies --   1088.6148              1096.5510              1145.4875
 Red. masses --      2.7828                 2.7165                 2.2831
 Frc consts  --      1.9431                 1.9245                 1.7650
 IR Inten    --     21.1470                11.0122                 1.2299

                     37                     38                     39
                      A                      A                      A
 Frequencies --   1177.8640              1210.9882              1226.3006
 Red. masses --      1.1644                 1.1000                 1.2023
 Frc consts  --      0.9518                 0.9504                 1.0652
 IR Inten    --      0.5503                 0.0032                66.7866

                     40                     41                     42
                      A                      A                      A
 Frequencies --   1267.3848              1302.8446              1309.8215
 Red. masses --      1.2378                 1.3280                 1.1098
 Frc consts  --      1.1714                 1.3281                 1.1218
 IR Inten    --     19.2445                25.2013                 0.4707

                     43                     44                     45
                      A                      A                      A
 Frequencies --   1326.8469              1332.9166              1343.0933
 Red. masses --      1.3220                 1.2316                 1.4019
 Frc consts  --      1.3713                 1.2892                 1.4900
 IR Inten    --     17.5869                 2.5679                77.4177

                     46                     47                     48
                      A                      A                      A
 Frequencies --   1356.5817              1384.8402              1442.3179
 Red. masses --      1.2469                 1.6368                 5.4902
 Frc consts  --      1.3520                 1.8495                 6.7291
 IR Inten    --      0.5567                 0.1662                34.7512

                     49                     50                     51
                      A                      A                      A
 Frequencies --   1452.8727              1454.6582              1455.6148
 Red. masses --      1.0967                 1.1852                 1.0814
 Frc consts  --      1.3639                 1.4776                 1.3500
 IR Inten    --     26.6807                 0.8646                 6.7684

                     52                     53                     54
                      A                      A                      A
 Frequencies --   1485.0922              1646.6655              1712.3900
 Red. masses --      1.0844                 6.0728                 5.0620
 Frc consts  --      1.4091                 9.7018                 8.7453
 IR Inten    --      5.5399               135.9461                11.2258

                     55                     56                     57
                      A                      A                      A
 Frequencies --   1735.7761              1961.6360              3005.3571
 Red. masses --      6.6320                11.5834                 1.0594
 Frc consts  --     11.7729                26.2616                 5.6379
 IR Inten    --      0.3507               866.9337                10.1409

                     58                     59                     60
                      A                      A                      A
 Frequencies --   3009.8545              3014.9002              3025.4278
 Red. masses --      1.0595                 1.0592                 1.0984
 Frc consts  --      5.6552                 5.6725                 5.9236
 IR Inten    --      6.7015                20.5570                 0.0970

                     61                     62                     63
                      A                      A                      A
 Frequencies --   3031.0002              3050.2356              3086.7739
 Red. masses --      1.1003                 1.1029                 1.0865
 Frc consts  --      5.9558                 6.0457                 6.0995
 IR Inten    --     11.3219                27.6171                22.4357

                     64                     65                     66
                      A                      A                      A
 Frequencies --   3114.9342              3120.9364              3133.2257
 Red. masses --      1.0906                 1.0855                 1.0751
 Frc consts  --      6.2345                 6.2292                 6.2183
 IR Inten    --      1.6663                25.3512                24.0410

                     67                     68                     69
                      A                      A                      A
 Frequencies --   3142.9564              3156.8087              3224.4963
 Red. masses --      1.0756                 1.0890                 1.1137
 Frc consts  --      6.2601                 6.3940                 6.8223
 IR Inten    --      4.7093                 4.1191                14.5992

 - Thermochemistry -
 -------------------
 Temperature   298.150 Kelvin.  Pressure   1.00000 Atm.
 Atom     1 has atomic number  6 and mass  12.00000

 Molecular mass:   157.10173 amu.
 Principal axes and moments of inertia in atomic units:
                           1         2         3
     Eigenvalues --   172.45550********************
           X            1.00000   0.00232   0.00000
           Y           -0.00232   1.00000  -0.00000
           Z           -0.00000   0.00000   1.00000
 This molecule is an asymmetric top.
 Rotational symmetry number  1.
 Rotational temperatures (Kelvin)      0.50224     0.00836     0.00825
 Rotational constants (GHZ):          10.46497     0.17426     0.17194
    4 imaginary frequencies ignored.
 Zero-point vibrational energy     531141.8 (Joules/Mol)
                                  126.94594 (Kcal/Mol)
 Warning -- explicit consideration of  16 degrees of freedom as
           vibrations may cause significant error
 Vibrational temperatures:     13.90    51.23    96.12   113.99   232.56
          (Kelvin)            302.77   307.60   337.72   414.68   539.53
                              589.02   609.69   623.95   755.88   783.18
                              784.99   985.78  1091.62  1245.67  1312.12
                             1332.48  1345.46  1383.22  1409.67  1449.00
                             1486.17  1494.26  1513.17  1517.01  1566.27
                             1577.69  1648.10  1694.68  1742.34  1764.37
                             1823.48  1874.50  1884.54  1909.04  1917.77
                             1932.41  1951.82  1992.48  2075.17  2090.36
                             2092.93  2094.31  2136.72  2369.18  2463.75
                             2497.39  2822.36  4324.04  4330.51  4337.77
                             4352.92  4360.93  4388.61  4441.18  4481.70
                             4490.33  4508.01  4522.01  4541.94  4639.33

 Zero-point correction=                           0.202301 (Hartree/Particle)
 Thermal correction to Energy=                    0.213840
 Thermal correction to Enthalpy=                  0.214784
 Thermal correction to Gibbs Free Energy=         0.161041
 Sum of electronic and zero-point Energies=           -464.653238
 Sum of electronic and thermal Energies=              -464.641700
 Sum of electronic and thermal Enthalpies=            -464.640756
 Sum of electronic and thermal Free Energies=         -464.694498

                     E (Thermal)             CV                S
                      KCal/Mol        Cal/Mol-Kelvin    Cal/Mol-Kelvin
 Total                  134.186             41.280            113.110
 Electronic               0.000              0.000              1.377
 Translational            0.889              2.981             41.065
 Rotational               0.889              2.981             31.306
 Vibrational            132.409             35.318             39.362
 Vibration     1          0.593              1.987              8.079
 Vibration     2          0.594              1.982              5.490
 Vibration     3          0.598              1.970              4.245
 Vibration     4          0.600              1.963              3.910
 Vibration     5          0.622              1.889              2.531
 Vibration     6          0.643              1.825              2.040
 Vibration     7          0.644              1.820              2.011
 Vibration     8          0.655              1.788              1.842
 Vibration     9          0.685              1.696              1.484
 Vibration    10          0.746              1.523              1.059
 Vibration    11          0.774              1.450              0.929
 Vibration    12          0.786              1.419              0.879
 Vibration    13          0.794              1.397              0.847
 Vibration    14          0.880              1.194              0.598
 Vibration    15          0.899              1.152              0.556
 Vibration    16          0.901              1.149              0.553

 Optimization completed.
    -- Stationary point found.
 Normal termination of Gaussian 16 at Fri May 19 10:07:49 2023.
