 Gaussian 16, Revision A.03,
 Gaussian 16:  ES64L-G16RevA.03 25-Dec-2016

 -----------------------------
 # opt freq b3lyp/6-31g(2df,p)
 -----------------------------

 -------------------
 Title Card Required
 -------------------
 Symbolic Z-matrix:
 Charge =  0 Multiplicity = 1

 SCF Done:  E(RB3LYP) =  -801.085161384     A.U. after   24 cycles
 SCF Done:  E(RB3LYP) =  -801.107657935     A.U. after   17 cycles
 SCF Done:  E(RB3LYP) =  -801.128574834     A.U. after   17 cycles
 SCF Done:  E(RB3LYP) =  -801.136309318     A.U. after   16 cycles
 SCF Done:  E(RB3LYP) =  -801.134615306     A.U. after   15 cycles
 SCF Done:  E(RB3LYP) =  -801.143795741     A.U. after   14 cycles
 SCF Done:  E(RB3LYP) =  -801.145649071     A.U. after   16 cycles
 SCF Done:  E(RB3LYP) =  -801.146712950     A.U. after   13 cycles
 SCF Done:  E(RB3LYP) =  -801.147275955     A.U. after   14 cycles
 SCF Done:  E(RB3LYP) =  -801.147434463     A.U. after   14 cycles
 SCF Done:  E(RB3LYP) =  -801.147648196     A.U. after   13 cycles
 SCF Done:  E(RB3LYP) =  -801.147695224     A.U. after   12 cycles
 SCF Done:  E(RB3LYP) =  -801.147713718     A.U. after   11 cycles
 SCF Done:  E(RB3LYP) =  -801.147730038     A.U. after   13 cycles
 SCF Done:  E(RB3LYP) =  -801.147739349     A.U. after   12 cycles
 SCF Done:  E(RB3LYP) =  -801.147748941     A.U. after   13 cycles
 SCF Done:  E(RB3LYP) =  -801.147750150     A.U. after   10 cycles
 SCF Done:  E(RB3LYP) =  -801.147750605     A.U. after   10 cycles
 SCF Done:  E(RB3LYP) =  -801.147750696     A.U. after   10 cycles
 Optimization completed.
    -- Stationary point found.
 Normal termination of Gaussian 16 at Tue May 16 13:48:58 2023.

 ----------------------------------------------------------------------
 #N Geom=AllCheck Guess=TCheck SCRF=Check GenChk RB3LYP/6-31G(2df,p) Fr
 eq
 ----------------------------------------------------------------------

 Structure from the checkpoint file:  "[CH]CdC1CdCCdCSC1dNC.chk"
 -------------------
 Title Card Required
 -------------------
 Charge =  0 Multiplicity = 1

                         Standard orientation:
 ---------------------------------------------------------------------
 Center     Atomic      Atomic             Coordinates (Angstroms)
 Number     Number       Type             X           Y           Z
 ---------------------------------------------------------------------
      1          6           0        3.503826   -0.301536   -0.482246
      2          6           0        2.268789   -0.902524   -0.314134
      3          6           0        1.157849   -0.116145    0.054422
      4          6           0        1.345905    1.237729    0.434243
      5          6           0        0.471327    2.259529    0.676266
      6          6           0       -0.911841    2.426395    0.353273
      7          6           0       -1.762376    1.591158   -0.282951
      8         16           0       -1.559965   -0.042547   -0.839637
      9          6           0       -0.171249   -0.791151    0.080641
     10          7           0       -0.254329   -1.944819    0.584155
     11          6           0       -1.467260   -2.723735    0.668927
     12          1           0        4.144399   -0.860908   -1.185762
     13          1           0        2.066329   -1.965015   -0.471444
     14          1           0        2.408557    1.442697    0.581807
     15          1           0        0.920581    3.140723    1.128458
     16          1           0       -1.330852    3.394699    0.615616
     17          1           0       -2.762589    1.937644   -0.525546
     18          1           0       -1.461940   -3.270822    1.616090
     19          1           0       -1.468140   -3.472052   -0.133292
     20          1           0       -2.386418   -2.130809    0.588517
 ---------------------------------------------------------------------

 SCF Done:  E(RB3LYP) =  -801.147750696     A.U. after    1 cycles

 The electronic state is 1-A.
 Alpha  occ. eigenvalues --  -88.91357 -14.34989 -10.27467 -10.23881 -10.23276
 Alpha  occ. eigenvalues --  -10.22079 -10.21052 -10.20971 -10.19892 -10.18437
 Alpha  occ. eigenvalues --  -10.17300  -7.97600  -5.94029  -5.93637  -5.93305
 Alpha  occ. eigenvalues --   -0.95148  -0.85219  -0.81988  -0.78343  -0.73736
 Alpha  occ. eigenvalues --   -0.71797  -0.66652  -0.63120  -0.56850  -0.54474
 Alpha  occ. eigenvalues --   -0.51583  -0.50152  -0.48120  -0.45096  -0.44820
 Alpha  occ. eigenvalues --   -0.44079  -0.41082  -0.40358  -0.38617  -0.37123
 Alpha  occ. eigenvalues --   -0.36595  -0.35449  -0.32932  -0.30973  -0.27728
 Alpha  occ. eigenvalues --   -0.26435  -0.22691  -0.18160
 Alpha virt. eigenvalues --   -0.11004  -0.05464  -0.01070   0.03167   0.04449
 Alpha virt. eigenvalues --    0.06759   0.07930   0.10828   0.12251   0.13175
 Alpha virt. eigenvalues --    0.14099   0.15454   0.16461   0.17528   0.18112

 Mulliken charges:
               1
     1  C   -0.311255
     2  C   -0.117894
     3  C    0.208413
     4  C   -0.108265
     5  C   -0.093621
     6  C   -0.076286
     7  C   -0.137842
     8  S   -0.090788
     9  C    0.128337
    10  N   -0.192314
    11  C   -0.330313
    12  H    0.104962
    13  H    0.093106
    14  H    0.137278
    15  H    0.109313
    16  H    0.110298
    17  H    0.138238
    18  H    0.141089
    19  H    0.146291
    20  H    0.141254
 Sum of Mulliken charges =  -0.00000

 Dipole moment (field-independent basis, Debye):
    X=             -3.9295    Y=              0.2934    Z=              0.0970  Tot=              3.9416
 Quadrupole moment (field-independent basis, Debye-Ang):
   XX=            -78.4973   YY=            -62.0769   ZZ=            -72.8537
   XY=             -1.9158   XZ=             -1.1838   YZ=              2.3128

  Exact polarizability: 208.073 -22.449 159.291  -9.957  10.548  77.904
 Approx polarizability: 497.344-104.857 293.921 -27.795  27.155 142.986

                      1                      2                      3
                      A                      A                      A
 Frequencies --     40.0658                79.6411               121.7703
 Red. masses --      4.4569                 3.5489                 3.0538
 Frc consts  --      0.0042                 0.0133                 0.0267
 IR Inten    --      2.2332                 1.6754                 2.5449

                      4                      5                      6
                      A                      A                      A
 Frequencies --    127.3727               196.2877               218.4103
 Red. masses --      1.3602                 3.3522                 3.4628
 Frc consts  --      0.0130                 0.0761                 0.0973
 IR Inten    --      3.7513                 4.3645                13.1622

                      7                      8                      9
                      A                      A                      A
 Frequencies --    254.9383               279.3719               300.9102
 Red. masses --      3.5893                 7.1691                 3.3570
 Frc consts  --      0.1374                 0.3297                 0.1791
 IR Inten    --      5.6057                16.0161                 2.3481

                     10                     11                     12
                      A                      A                      A
 Frequencies --    339.8371               401.5269               457.6542
 Red. masses --      5.4023                 5.6920                 4.1269
 Frc consts  --      0.3676                 0.5407                 0.5093
 IR Inten    --      3.1799                 3.1797                 0.9184

                     13                     14                     15
                      A                      A                      A
 Frequencies --    487.1622               539.6922               554.9750
 Red. masses --      4.2469                 2.2136                 2.1288
 Frc consts  --      0.5938                 0.3799                 0.3863
 IR Inten    --     15.3925               128.0841               103.9751

                     16                     17                     18
                      A                      A                      A
 Frequencies --    639.1503               659.1822               684.6717
 Red. masses --      4.4828                 3.6497                 2.0045
 Frc consts  --      1.0790                 0.9344                 0.5536
 IR Inten    --     30.1539                18.6222                56.7264

                     19                     20                     21
                      A                      A                      A
 Frequencies --    728.5134               756.4121               835.0934
 Red. masses --      3.7170                 2.3854                 2.8888
 Frc consts  --      1.1623                 0.8041                 1.1869
 IR Inten    --      8.6436                72.0062               117.1736

                     22                     23                     24
                      A                      A                      A
 Frequencies --    865.0566               883.0491               907.6896
 Red. masses --      1.5514                 2.2394                 3.0859
 Frc consts  --      0.6840                 1.0289                 1.4980
 IR Inten    --     43.8394               164.8960                28.5568

                     25                     26                     27
                      A                      A                      A
 Frequencies --    964.2319               983.1153               998.2673
 Red. masses --      1.3272                 2.3845                 1.4563
 Frc consts  --      0.7270                 1.3579                 0.8551
 IR Inten    --      6.0120                69.4440                48.0938

                     28                     29                     30
                      A                      A                      A
 Frequencies --   1027.6923              1047.4118              1114.7026
 Red. masses --      3.4566                 1.5057                 1.4234
 Frc consts  --      2.1509                 0.9733                 1.0421
 IR Inten    --     20.0674                 8.9339                 6.4991

                     31                     32                     33
                      A                      A                      A
 Frequencies --   1151.1779              1180.0020              1228.9030
 Red. masses --      1.4234                 1.5060                 1.7747
 Frc consts  --      1.1114                 1.2355                 1.5791
 IR Inten    --      1.3024                 1.2873                 9.9016

                     34                     35                     36
                      A                      A                      A
 Frequencies --   1259.6550              1315.9532              1340.9403
 Red. masses --      1.2649                 1.6435                 2.1747
 Frc consts  --      1.1825                 1.6768                 2.3039
 IR Inten    --      8.0171                22.1587                61.5916

                     37                     38                     39
                      A                      A                      A
 Frequencies --   1399.8360              1430.3316              1466.4938
 Red. masses --      1.4411                 1.1816                 2.5381
 Frc consts  --      1.6638                 1.4243                 3.2160
 IR Inten    --     11.0799                15.7654               199.4807

                     40                     41                     42
                      A                      A                      A
 Frequencies --   1477.5952              1490.6279              1494.2426
 Red. masses --      1.0519                 1.0753                 2.0598
 Frc consts  --      1.3532                 1.4077                 2.7096
 IR Inten    --      5.2518                 9.6148                 5.2404

                     43                     44                     45
                      A                      A                      A
 Frequencies --   1570.6907              1640.9007              1717.1170
 Red. masses --      8.3129                 5.0739                10.2939
 Frc consts  --     12.0832                 8.0492                17.8826
 IR Inten    --     24.2742                26.3773                95.1314

                     46                     47                     48
                      A                      A                      A
 Frequencies --   3001.8431              3011.8588              3076.0309
 Red. masses --      1.0830                 1.0341                 1.1007
 Frc consts  --      5.7497                 5.5268                 6.1360
 IR Inten    --    109.9577                32.6760                13.9228

                     49                     50                     51
                      A                      A                      A
 Frequencies --   3079.1148              3098.3376              3101.4555
 Red. masses --      1.0882                 1.0845                 1.1006
 Frc consts  --      6.0790                 6.1340                 6.2372
 IR Inten    --     20.8458                 7.3577                16.7462

                     52                     53                     54
                      A                      A                      A
 Frequencies --   3145.0683              3160.2650              3178.4852
 Red. masses --      1.0835                 1.0872                 1.0929
 Frc consts  --      6.3146                 6.3972                 6.5053
 IR Inten    --      9.5016                11.2991                 7.6749

 - Thermochemistry -
 -------------------
 Temperature   298.150 Kelvin.  Pressure   1.00000 Atm.
 Atom     1 has atomic number  6 and mass  12.00000

 Molecular mass:   163.04557 amu.
 Principal axes and moments of inertia in atomic units:
                           1         2         3
     Eigenvalues --  1622.380831798.948243037.24649
           X            0.99686   0.07755  -0.01588
           Y           -0.07751   0.99699   0.00356
           Z            0.01611  -0.00232   0.99987
 This molecule is an asymmetric top.
 Rotational symmetry number  1.
 Warning -- assumption of classical behavior for rotation
           may cause significant error
 Rotational temperatures (Kelvin)      0.05339     0.04815     0.02852
 Rotational constants (GHZ):           1.11240     1.00322     0.59420
 Zero-point vibrational energy     397822.8 (Joules/Mol)
                                   95.08194 (Kcal/Mol)
 Warning -- explicit consideration of  15 degrees of freedom as
           vibrations may cause significant error
 Vibrational temperatures:     57.65   114.59   175.20   183.26   282.41
          (Kelvin)            314.24   366.80   401.95   432.94   488.95
                              577.71   658.46   700.92   776.50   798.49
                              919.59   948.42   985.09  1048.17  1088.31
                             1201.51  1244.62  1270.51  1305.96  1387.31
                             1414.48  1436.28  1478.62  1506.99  1603.81
                             1656.29  1697.76  1768.12  1812.36  1893.36
                             1929.31  2014.05  2057.93  2109.96  2125.93
                             2144.68  2149.88  2259.87  2360.89  2470.55
                             4318.98  4333.39  4425.72  4430.16  4457.82
                             4462.30  4525.05  4546.92  4573.13

 Zero-point correction=                           0.151523 (Hartree/Particle)
 Thermal correction to Energy=                    0.162521
 Thermal correction to Enthalpy=                  0.163465
 Thermal correction to Gibbs Free Energy=         0.114277
 Sum of electronic and zero-point Energies=           -800.996228
 Sum of electronic and thermal Energies=              -800.985230
 Sum of electronic and thermal Enthalpies=            -800.984286
 Sum of electronic and thermal Free Energies=         -801.033474

                     E (Thermal)             CV                S
                      KCal/Mol        Cal/Mol-Kelvin    Cal/Mol-Kelvin
 Total                  101.983             40.791            103.524
 Electronic               0.000              0.000              0.000
 Translational            0.889              2.981             41.175
 Rotational               0.889              2.981             30.562
 Vibrational            100.206             34.829             31.787
 Vibration     1          0.594              1.981              5.256
 Vibration     2          0.600              1.963              3.900
 Vibration     3          0.609              1.931              3.072
 Vibration     4          0.611              1.926              2.985
 Vibration     5          0.636              1.845              2.168
 Vibration     6          0.646              1.813              1.972
 Vibration     7          0.665              1.754              1.696
 Vibration     8          0.680              1.712              1.538
 Vibration     9          0.693              1.672              1.412
 Vibration    10          0.720              1.596              1.213
 Vibration    11          0.767              1.467              0.957
 Vibration    12          0.816              1.344              0.773
 Vibration    13          0.843              1.279              0.691
 Vibration    14          0.895              1.162              0.566
 Vibration    15          0.910              1.129              0.534

 Optimization completed.
    -- Stationary point found.
 Normal termination of Gaussian 16 at Tue May 16 14:34:10 2023.
