 Gaussian 16, Revision A.03,
 Gaussian 16:  ES64L-G16RevA.03 25-Dec-2016

 -----------------------------
 # opt freq b3lyp/6-31g(2df,p)
 -----------------------------

 -------------------
 Title Card Required
 -------------------
 Symbolic Z-matrix:
 Charge =  0 Multiplicity = 1

 SCF Done:  E(RB3LYP) =  -610.753499346     A.U. after   34 cycles
 SCF Done:  E(RB3LYP) =  -610.933100533     A.U. after   22 cycles
 SCF Done:  E(RB3LYP) =  -611.182737200     A.U. after   22 cycles
 SCF Done:  E(RB3LYP) =  -611.349762089     A.U. after   20 cycles
 SCF Done:  E(RB3LYP) =  -611.493983299     A.U. after   19 cycles
 SCF Done:  E(RB3LYP) =  -611.608807567     A.U. after   20 cycles
 SCF Done:  E(RB3LYP) =  -611.714112878     A.U. after   18 cycles
 SCF Done:  E(RB3LYP) =  -611.776963183     A.U. after   17 cycles
 SCF Done:  E(RB3LYP) =  -611.811438940     A.U. after   17 cycles
 SCF Done:  E(RB3LYP) =  -611.812146999     A.U. after   17 cycles
 SCF Done:  E(RB3LYP) =  -612.020410570     A.U. after    8 cycles
 SCF Done:  E(RB3LYP) =  -612.020410855     A.U. after    8 cycles
 SCF Done:  E(RB3LYP) =  -612.020411019     A.U. after    8 cycles
 SCF Done:  E(RB3LYP) =  -612.020411156     A.U. after    8 cycles
 SCF Done:  E(RB3LYP) =  -612.020411281     A.U. after    8 cycles
 SCF Done:  E(RB3LYP) =  -612.020411378     A.U. after    7 cycles
 SCF Done:  E(RB3LYP) =  -612.020411452     A.U. after    7 cycles
 SCF Done:  E(RB3LYP) =  -612.020411500     A.U. after    7 cycles
 SCF Done:  E(RB3LYP) =  -612.020411528     A.U. after    6 cycles
 Optimization completed.
    -- Stationary point found.
 Normal termination of Gaussian 16 at Fri May 19 00:12:10 2023.

 ----------------------------------------------------------------------
 #N Geom=AllCheck Guess=TCheck SCRF=Check GenChk RB3LYP/6-31G(2df,p) Fr
 eq
 ----------------------------------------------------------------------

 Structure from the checkpoint file:  "[CH]C1CdCCdCCdNCNCqOrCdC1.chk"
 -------------------
 Title Card Required
 -------------------
 Charge =  0 Multiplicity = 1

                         Standard orientation:
 ---------------------------------------------------------------------
 Center     Atomic      Atomic             Coordinates (Angstroms)
 Number     Number       Type             X           Y           Z
 ---------------------------------------------------------------------
      1          6           0        5.556995   -0.416791    0.481746
      2          6           0        5.376552    1.042484    0.237237
      3          6           0        4.353912    0.038092   -0.281493
      4          6           0        2.989678    0.028924    0.281813
      5          6           0        1.866509   -0.087695   -0.428515
      6          6           0        0.487817   -0.100250    0.160977
      7          6           0       -0.438550   -1.192023   -0.292676
      8          7           0       -1.475200   -1.376275    0.412794
      9          6           0       -2.682826   -1.304526   -0.381107
     10          7           0       -3.643833    0.687596    0.718265
     11          6           0       -2.916824    0.231606   -0.485778
     12          8           0       -5.029239    0.327805    0.540230
     13          6           0       -1.687860    1.151501   -0.615475
     14          6           0       -0.370806    1.085578   -0.335540
     15          1           0        6.368388   -0.926385   -0.032679
     16          1           0        5.464374   -0.711134    1.527973
     17          1           0        4.404350   -0.067575   -1.365591
     18          1           0        2.924210    0.123560    1.365004
     19          1           0        1.925907   -0.182229   -1.512662
     20          1           0        0.523904   -0.073584    1.255466
     21          1           0       -0.416480   -1.394381   -1.380825
     22          1           0       -3.545220   -1.764270    0.106093
     23          1           0       -2.573473   -1.724168   -1.395704
     24          1           0       -3.662619    1.706567    0.701687
     25          1           0       -3.545691    0.420718   -1.370821
     26          1           0       -5.211619   -0.187709    1.333083
     27          1           0       -2.003703    2.131371   -0.977726
     28          1           0        0.207232    1.986138   -0.539691
 ---------------------------------------------------------------------

 SCF Done:  E(RB3LYP) =  -612.020411528     A.U. after    1 cycles

 The electronic state is 1-A.
 Alpha  occ. eigenvalues --  -19.15807 -14.36339 -14.30846 -10.24134 -10.22357
 Alpha  occ. eigenvalues --  -10.22099 -10.21046 -10.20829 -10.20592 -10.20512
 Alpha  occ. eigenvalues --  -10.20484 -10.20170 -10.20123 -10.19140  -1.04958
 Alpha  occ. eigenvalues --   -0.93140  -0.88463  -0.84248  -0.82083  -0.76938
 Alpha  occ. eigenvalues --   -0.73602  -0.68559  -0.63311  -0.61962  -0.57858
 Alpha  occ. eigenvalues --   -0.56374  -0.54759  -0.52940  -0.50874  -0.49420
 Alpha  occ. eigenvalues --   -0.48460  -0.48084  -0.47029  -0.43521  -0.42827
 Alpha  occ. eigenvalues --   -0.41886  -0.40629  -0.39708  -0.39223  -0.38158
 Alpha  occ. eigenvalues --   -0.36348  -0.35865  -0.34746  -0.31823  -0.29052
 Alpha  occ. eigenvalues --   -0.28136  -0.27165  -0.26537  -0.23489  -0.23269
 Alpha  occ. eigenvalues --   -0.21846
 Alpha virt. eigenvalues --   -0.10041  -0.01967  -0.00437   0.01639   0.07895
 Alpha virt. eigenvalues --    0.08970   0.09522   0.10762   0.11796   0.13167
 Alpha virt. eigenvalues --    0.13662   0.13907   0.14769   0.15276   0.15810

 Mulliken charges:
               1
     1  C   -0.317535
     2  C   -0.073928
     3  C   -0.055179
     4  C   -0.049864
     5  C   -0.083760
     6  C   -0.131299
     7  C   -0.036237
     8  N   -0.131329
     9  C   -0.181356
    10  N   -0.222249
    11  C    0.072089
    12  O   -0.419214
    13  C   -0.104343
    14  C   -0.045030
    15  H    0.152495
    16  H    0.150480
    17  H    0.114128
    18  H    0.091482
    19  H    0.086509
    20  H    0.114379
    21  H    0.071390
    22  H    0.096929
    23  H    0.085335
    24  H    0.234555
    25  H    0.077595
    26  H    0.302926
    27  H    0.097264
    28  H    0.103771
 Sum of Mulliken charges =  -0.00000

 Dipole moment (field-independent basis, Debye):
    X=              0.4927    Y=             -0.9679    Z=             -1.1689  Tot=              1.5955
 Quadrupole moment (field-independent basis, Debye-Ang):
   XX=            -84.1467   YY=            -85.5588   ZZ=            -79.3251
   XY=            -11.7486   XZ=             -2.7059   YZ=              0.1495

  Exact polarizability: 222.212   4.763 104.236  10.032  -0.842 103.076
 Approx polarizability: 280.845   9.791 162.046  14.968  -2.905 175.904

                      1                      2                      3
                      A                      A                      A
 Frequencies --     32.1577                33.5865                71.2124
 Red. masses --      5.0612                 4.8375                 3.6774
 Frc consts  --      0.0031                 0.0032                 0.0110
 IR Inten    --      0.5222                 1.7554                 6.4904

                      4                      5                      6
                      A                      A                      A
 Frequencies --     91.4030               112.7436               128.4423
 Red. masses --      4.2264                 4.4727                 3.2159
 Frc consts  --      0.0208                 0.0335                 0.0313
 IR Inten    --      0.2208                 2.3655                 1.0353

                      7                      8                      9
                      A                      A                      A
 Frequencies --    171.4394               205.5082               245.5377
 Red. masses --      4.2480                 2.4922                 3.0275
 Frc consts  --      0.0736                 0.0620                 0.1075
 IR Inten    --      0.4071                 3.5939                 5.2270

                     10                     11                     12
                      A                      A                      A
 Frequencies --    263.0187               311.1006               331.3694
 Red. masses --      3.5808                 3.6044                 3.0900
 Frc consts  --      0.1459                 0.2055                 0.1999
 IR Inten    --     10.7457                 1.5505                17.9140

                     13                     14                     15
                      A                      A                      A
 Frequencies --    352.9618               371.0334               380.1363
 Red. masses --      1.2797                 2.6306                 3.4621
 Frc consts  --      0.0939                 0.2134                 0.2948
 IR Inten    --     59.9295                22.5615                13.1809

                     16                     17                     18
                      A                      A                      A
 Frequencies --    443.5003               460.7183               507.2052
 Red. masses --      3.0952                 3.4473                 3.5592
 Frc consts  --      0.3587                 0.4311                 0.5395
 IR Inten    --      0.7665                 4.3271                 4.6415

                     19                     20                     21
                      A                      A                      A
 Frequencies --    524.4369               576.4179               613.6454
 Red. masses --      3.1270                 3.4096                 3.1159
 Frc consts  --      0.5067                 0.6675                 0.6913
 IR Inten    --      2.8589                 1.0208                18.7536

                     22                     23                     24
                      A                      A                      A
 Frequencies --    638.2227               701.9151               736.0066
 Red. masses --      1.5134                 1.3747                 1.9346
 Frc consts  --      0.3632                 0.3990                 0.6174
 IR Inten    --      8.8138                15.9508                15.2317

                     25                     26                     27
                      A                      A                      A
 Frequencies --    755.2905               782.8884               847.5816
 Red. masses --      2.7128                 3.3769                 3.0318
 Frc consts  --      0.9118                 1.2195                 1.2833
 IR Inten    --     55.7034                43.1246                36.3906

                     28                     29                     30
                      A                      A                      A
 Frequencies --    848.0290               883.8713               909.6401
 Red. masses --      2.3464                 2.8565                 3.0617
 Frc consts  --      0.9942                 1.3148                 1.4926
 IR Inten    --     18.5611                33.6029                22.3855

                     31                     32                     33
                      A                      A                      A
 Frequencies --    919.0501               968.1306               973.7571
 Red. masses --      2.2557                 2.3939                 2.1441
 Frc consts  --      1.1225                 1.3220                 1.1978
 IR Inten    --      2.4281                 7.5816               105.1096

                     34                     35                     36
                      A                      A                      A
 Frequencies --    982.9655              1000.9279              1012.7643
 Red. masses --      1.5581                 2.2264                 1.2669
 Frc consts  --      0.8870                 1.3142                 0.7656
 IR Inten    --     20.3157                20.2425                21.3523

                     37                     38                     39
                      A                      A                      A
 Frequencies --   1022.3650              1024.2213              1038.9725
 Red. masses --      1.6932                 1.5336                 4.5403
 Frc consts  --      1.0427                 0.9479                 2.8877
 IR Inten    --     12.7382                14.2244                21.0267

                     40                     41                     42
                      A                      A                      A
 Frequencies --   1072.6282              1107.0614              1130.3203
 Red. masses --      2.5382                 2.2541                 2.3399
 Frc consts  --      1.7206                 1.6276                 1.7614
 IR Inten    --     14.1198                12.4908                 0.7457

                     43                     44                     45
                      A                      A                      A
 Frequencies --   1139.6355              1152.7840              1197.9465
 Red. masses --      1.5712                 2.4296                 1.2812
 Frc consts  --      1.2023                 1.9023                 1.0833
 IR Inten    --      6.2213                21.3196                 5.6180

                     46                     47                     48
                      A                      A                      A
 Frequencies --   1207.1607              1219.5728              1233.1497
 Red. masses --      1.4449                 1.1960                 1.3125
 Frc consts  --      1.2406                 1.0481                 1.1760
 IR Inten    --     14.8053                 6.5300                 1.0593

                     49                     50                     51
                      A                      A                      A
 Frequencies --   1279.2026              1294.4881              1310.5103
 Red. masses --      1.2467                 1.6143                 1.2398
 Frc consts  --      1.2020                 1.5937                 1.2545
 IR Inten    --      0.4362                18.0965                52.8344

                     52                     53                     54
                      A                      A                      A
 Frequencies --   1314.7070              1336.2809              1361.6540
 Red. masses --      1.2930                 1.2667                 1.2619
 Frc consts  --      1.3168                 1.3327                 1.3785
 IR Inten    --      5.8370                 0.1116                25.4972

                     55                     56                     57
                      A                      A                      A
 Frequencies --   1378.6354              1391.5677              1395.3440
 Red. masses --      1.2450                 1.3014                 1.3182
 Frc consts  --      1.3942                 1.4848                 1.5121
 IR Inten    --      8.6774                 1.4054                21.3543

                     58                     59                     60
                      A                      A                      A
 Frequencies --   1404.2311              1418.6445              1491.0487
 Red. masses --      1.6646                 1.4251                 1.1278
 Frc consts  --      1.9339                 1.6899                 1.4773
 IR Inten    --     14.2358                 6.9836                 0.6920

                     61                     62                     63
                      A                      A                      A
 Frequencies --   1499.3688              1647.5140              1703.8278
 Red. masses --      1.1038                 6.7552                 7.7777
 Frc consts  --      1.4621                10.8030                13.3032
 IR Inten    --     10.4993                 6.8766                33.7304

                     64                     65                     66
                      A                      A                      A
 Frequencies --   1723.6236              2919.8666              2952.1646
 Red. masses --      6.6507                 1.0828                 1.0724
 Frc consts  --     11.6414                 5.4391                 5.5067
 IR Inten    --     41.8044                57.3541                20.8690

                     67                     68                     69
                      A                      A                      A
 Frequencies --   2969.2048              3057.3786              3091.5115
 Red. masses --      1.0788                 1.0830                 1.0581
 Frc consts  --      5.6039                 5.9645                 5.9585
 IR Inten    --     91.7634                 3.6408                 3.4098

                     70                     71                     72
                      A                      A                      A
 Frequencies --   3101.1623              3103.8337              3104.7823
 Red. masses --      1.0835                 1.0914                 1.0819
 Frc consts  --      6.1396                 6.1946                 6.1448
 IR Inten    --     10.9673                38.0850                 0.5487

                     73                     74                     75
                      A                      A                      A
 Frequencies --   3127.8732              3136.2365              3137.1898
 Red. masses --      1.0897                 1.0903                 1.0869
 Frc consts  --      6.2812                 6.3188                 6.3025
 IR Inten    --      6.4631                16.1288                25.7491

                     76                     77                     78
                      A                      A                      A
 Frequencies --   3170.7603              3454.0559              3806.5039
 Red. masses --      1.1070                 1.0753                 1.0682
 Frc consts  --      6.5570                 7.5587                 9.1191
 IR Inten    --      0.3088                 1.3998                46.1229

 - Thermochemistry -
 -------------------
 Temperature   298.150 Kelvin.  Pressure   1.00000 Atm.
 Atom     1 has atomic number  6 and mass  12.00000

 Molecular mass:   190.11061 amu.
 Principal axes and moments of inertia in atomic units:
                           1         2         3
     Eigenvalues --   687.569727776.865428086.24312
           X            0.99999  -0.00475   0.00227
           Y            0.00473   0.99995   0.00841
           Z           -0.00231  -0.00840   0.99996
 This molecule is an asymmetric top.
 Rotational symmetry number  1.
 Warning -- assumption of classical behavior for rotation
           may cause significant error
 Rotational temperatures (Kelvin)      0.12597     0.01114     0.01071
 Rotational constants (GHZ):           2.62481     0.23207     0.22319
 Zero-point vibrational energy     597041.9 (Joules/Mol)
                                  142.69643 (Kcal/Mol)
 Warning -- explicit consideration of  21 degrees of freedom as
           vibrations may cause significant error
 Vibrational temperatures:     46.27    48.32   102.46   131.51   162.21
          (Kelvin)            184.80   246.66   295.68   353.27   378.43
                              447.60   476.77   507.83   533.83   546.93
                              638.10   662.87   729.76   754.55   829.34
                              882.90   918.26  1009.90  1058.95  1086.69
                             1126.40  1219.48  1220.12  1271.69  1308.77
                             1322.31  1392.92  1401.02  1414.27  1440.11
                             1457.14  1470.96  1473.63  1494.85  1543.27
                             1592.81  1626.28  1639.68  1658.60  1723.58
                             1736.84  1754.69  1774.23  1840.49  1862.48
                             1885.53  1891.57  1922.61  1959.12  1983.55
                             2002.16  2007.59  2020.38  2041.11  2145.29
                             2157.26  2370.41  2451.43  2479.91  4201.04
                             4247.51  4272.02  4398.89  4448.00  4461.88
                             4465.72  4467.09  4500.31  4512.34  4513.72
                             4562.02  4969.62  5476.71

 Zero-point correction=                           0.227401 (Hartree/Particle)
 Thermal correction to Energy=                    0.241529
 Thermal correction to Enthalpy=                  0.242473
 Thermal correction to Gibbs Free Energy=         0.185369
 Sum of electronic and zero-point Energies=           -611.793010
 Sum of electronic and thermal Energies=              -611.778883
 Sum of electronic and thermal Enthalpies=            -611.777939
 Sum of electronic and thermal Free Energies=         -611.835042

                     E (Thermal)             CV                S
                      KCal/Mol        Cal/Mol-Kelvin    Cal/Mol-Kelvin
 Total                  151.561             53.368            120.184
 Electronic               0.000              0.000              0.000
 Translational            0.889              2.981             41.633
 Rotational               0.889              2.981             32.136
 Vibrational            149.784             47.406             46.415
 Vibration     1          0.594              1.983              5.692
 Vibration     2          0.594              1.983              5.605
 Vibration     3          0.598              1.968              4.120
 Vibration     4          0.602              1.955              3.630
 Vibration     5          0.607              1.939              3.221
 Vibration     6          0.611              1.925              2.969
 Vibration     7          0.626              1.878              2.420
 Vibration     8          0.640              1.832              2.083
 Vibration     9          0.660              1.770              1.762
 Vibration    10          0.670              1.741              1.642
 Vibration    11          0.700              1.653              1.356
 Vibration    12          0.714              1.613              1.253
 Vibration    13          0.729              1.569              1.153
 Vibration    14          0.743              1.532              1.076
 Vibration    15          0.750              1.513              1.039
 Vibration    16          0.803              1.375              0.816
 Vibration    17          0.819              1.337              0.764
 Vibration    18          0.862              1.234              0.640
 Vibration    19          0.879              1.196              0.600
 Vibration    20          0.933              1.082              0.492
 Vibration    21          0.973              1.003              0.427

 Optimization completed.
    -- Stationary point found.
 Normal termination of Gaussian 16 at Fri May 19 01:37:52 2023.
