 Gaussian 16, Revision A.03,
 Gaussian 16:  ES64L-G16RevA.03 25-Dec-2016

 -----------------------------
 # opt freq b3lyp/6-31g(2df,p)
 -----------------------------

 -------------------
 Title Card Required
 -------------------
 Symbolic Z-matrix:
 Charge =  0 Multiplicity = 1

 SCF Done:  E(RB3LYP) =  -1182.09352235     A.U. after   22 cycles
 SCF Done:  E(RB3LYP) =  -1182.12818249     A.U. after   15 cycles
 SCF Done:  E(RB3LYP) =  -1182.18022049     A.U. after   15 cycles
 SCF Done:  E(RB3LYP) =  -1182.20013613     A.U. after   15 cycles
 SCF Done:  E(RB3LYP) =  -1182.21449008     A.U. after   15 cycles
 SCF Done:  E(RB3LYP) =  -1182.22122952     A.U. after   15 cycles
 SCF Done:  E(RB3LYP) =  -1182.22316024     A.U. after   14 cycles
 SCF Done:  E(RB3LYP) =  -1182.22375359     A.U. after   14 cycles
 SCF Done:  E(RB3LYP) =  -1182.22459060     A.U. after   14 cycles
 SCF Done:  E(RB3LYP) =  -1182.22484414     A.U. after   12 cycles
 SCF Done:  E(RB3LYP) =  -1182.22643931     A.U. after   14 cycles
 SCF Done:  E(RB3LYP) =  -1182.22648351     A.U. after   14 cycles
 SCF Done:  E(RB3LYP) =  -1182.22648957     A.U. after   12 cycles
 SCF Done:  E(RB3LYP) =  -1182.22657177     A.U. after   14 cycles
 SCF Done:  E(RB3LYP) =  -1182.22658767     A.U. after   13 cycles
 SCF Done:  E(RB3LYP) =  -1182.22659536     A.U. after   11 cycles
 SCF Done:  E(RB3LYP) =  -1182.22659825     A.U. after   10 cycles
 SCF Done:  E(RB3LYP) =  -1182.22659898     A.U. after    9 cycles
 SCF Done:  E(RB3LYP) =  -1182.22659943     A.U. after   10 cycles
 Optimization completed.
    -- Stationary point found.
 Normal termination of Gaussian 16 at Thu May 18 04:18:19 2023.

 ----------------------------------------------------------------------
 #N Geom=AllCheck Guess=TCheck SCRF=Check GenChk RB3LYP/6-31G(2df,p) Fr
 eq
 ----------------------------------------------------------------------

 Structure from the checkpoint file:  "[CH]CCCqdCdSrCdCCd[SH]O.chk"
 -------------------
 Title Card Required
 -------------------
 Charge =  0 Multiplicity = 1

                         Standard orientation:
 ---------------------------------------------------------------------
 Center     Atomic      Atomic             Coordinates (Angstroms)
 Number     Number       Type             X           Y           Z
 ---------------------------------------------------------------------
      1          6           0       -4.929922   -1.560436   -0.653991
      2          6           0       -3.892993   -0.812852    0.007470
      3          6           0       -2.477500   -1.378270    0.030632
      4          6           0       -1.345691   -0.361618    0.159353
      5          6           0       -1.599332    0.929987    0.075761
      6         16           0       -1.878905    2.465573   -0.018259
      7          6           0        0.000431   -0.891332    0.365031
      8          6           0        1.163523   -0.204543    0.301276
      9          6           0        2.452484   -0.754705    0.604966
     10         16           0        3.811308    0.113125    0.250439
     11          8           0        4.831525   -0.303551   -1.147459
     12          1           0       -5.882141   -1.052029   -0.388582
     13          1           0       -4.101862   -0.140390    0.853590
     14          1           0       -4.034003   -0.169172   -0.937503
     15          1           0       -2.330578   -1.985329   -0.870051
     16          1           0       -2.402750   -2.067170    0.882975
     17          1           0        0.030796   -1.953431    0.600422
     18          1           0        1.137389    0.851328    0.031848
     19          1           0        2.543758   -1.809584    0.844306
     20          1           0        4.722074   -0.567181    0.970426
     21          1           0        4.520666    0.264818   -1.865630
 ---------------------------------------------------------------------

 SCF Done:  E(RB3LYP) =  -1182.22659943     A.U. after    1 cycles

 The electronic state is 1-A.
 Alpha  occ. eigenvalues --  -88.98060 -88.89342 -19.14578 -10.25623 -10.21937
 Alpha  occ. eigenvalues --  -10.21026 -10.20914 -10.20859 -10.20621 -10.19862
 Alpha  occ. eigenvalues --  -10.19337  -8.03141  -7.95767  -5.99534  -5.99371
 Alpha  occ. eigenvalues --   -5.98965  -5.92050  -5.91974  -5.91405  -1.00326
 Alpha  occ. eigenvalues --   -0.85698  -0.83600  -0.81044  -0.78370  -0.74125
 Alpha  occ. eigenvalues --   -0.67459  -0.64217  -0.58060  -0.55082  -0.52117
 Alpha  occ. eigenvalues --   -0.48817  -0.48047  -0.47129  -0.46064  -0.44032
 Alpha  occ. eigenvalues --   -0.42702  -0.41404  -0.39913  -0.38522  -0.37060
 Alpha  occ. eigenvalues --   -0.36044  -0.34906  -0.34565  -0.31744  -0.31396
 Alpha  occ. eigenvalues --   -0.29083  -0.24250  -0.21492  -0.17982
 Alpha virt. eigenvalues --   -0.08011  -0.05836  -0.04810   0.00548   0.03326
 Alpha virt. eigenvalues --    0.07441   0.08175   0.08910   0.09718   0.10086
 Alpha virt. eigenvalues --    0.11168   0.11241   0.12748   0.14501   0.16853

 Mulliken charges:
               1
     1  C   -0.271226
     2  C   -0.194836
     3  C   -0.256899
     4  C   -0.031235
     5  C    0.252724
     6  S   -0.200828
     7  C   -0.117636
     8  C   -0.107591
     9  C   -0.181058
    10  S    0.132704
    11  O   -0.475170
    12  H    0.116700
    13  H    0.124399
    14  H    0.188707
    15  H    0.139933
    16  H    0.129501
    17  H    0.087160
    18  H    0.098835
    19  H    0.113543
    20  H    0.166058
    21  H    0.286216
 Sum of Mulliken charges =  -0.00000

 Dipole moment (field-independent basis, Debye):
    X=              1.5060    Y=              0.4524    Z=              1.3102  Tot=              2.0468
 Quadrupole moment (field-independent basis, Debye-Ang):
   XX=            -82.1512   YY=            -83.6695   ZZ=            -80.5003
   XY=             -4.1249   XZ=             -2.7964   YZ=             -7.3539

  Exact polarizability: 261.354 -11.638 146.148  -4.537  -5.397  85.647
 Approx polarizability: 392.792 -20.674 275.284 -21.876 -17.943 146.264

                      1                      2                      3
                      A                      A                      A
 Frequencies --     19.9507                35.7025                55.2684
 Red. masses --      4.6514                 2.5657                 6.0842
 Frc consts  --      0.0011                 0.0019                 0.0109
 IR Inten    --      0.0311                 2.0016                 6.4958

                      4                      5                      6
                      A                      A                      A
 Frequencies --     64.2656                80.3531               118.4856
 Red. masses --      8.2092                 4.1178                 4.3326
 Frc consts  --      0.0200                 0.0157                 0.0358
 IR Inten    --      5.5352                 0.2467                 6.4411

                      7                      8                      9
                      A                      A                      A
 Frequencies --    147.2912               193.1383               222.2799
 Red. masses --      3.6985                 4.6791                 1.7812
 Frc consts  --      0.0473                 0.1028                 0.0519
 IR Inten    --      7.8156                16.2566                27.4374

                     10                     11                     12
                      A                      A                      A
 Frequencies --    238.5583               248.0651               285.7340
 Red. masses --      5.7077                 1.9897                 3.4593
 Frc consts  --      0.1914                 0.0721                 0.1664
 IR Inten    --     25.9619                26.1416                28.6721

                     13                     14                     15
                      A                      A                      A
 Frequencies --    321.9491               343.5557               374.8057
 Red. masses --      3.3356                 1.5324                 2.5829
 Frc consts  --      0.2037                 0.1066                 0.2138
 IR Inten    --      7.9162                83.9928                48.0313

                     16                     17                     18
                      A                      A                      A
 Frequencies --    425.6300               456.9472               509.5091
 Red. masses --      4.8688                 4.7468                 4.0756
 Frc consts  --      0.5197                 0.5840                 0.6234
 IR Inten    --     24.7120                16.5023                 2.0991

                     19                     20                     21
                      A                      A                      A
 Frequencies --    522.5115               645.2759               700.9951
 Red. masses --     10.2598                 2.0348                 6.5453
 Frc consts  --      1.6504                 0.4992                 1.8950
 IR Inten    --    305.1852                23.6920                11.7522

                     22                     23                     24
                      A                      A                      A
 Frequencies --    719.0260               757.1259               791.4212
 Red. masses --      1.7756                 1.2968                 1.2038
 Frc consts  --      0.5409                 0.4380                 0.4443
 IR Inten    --     17.7136                57.6553                16.1547

                     25                     26                     27
                      A                      A                      A
 Frequencies --    838.2392               894.3454               968.3154
 Red. masses --      1.8756                 1.3243                 1.8661
 Frc consts  --      0.7765                 0.6241                 1.0309
 IR Inten    --     12.0091                 5.4554                19.5584

                     28                     29                     30
                      A                      A                      A
 Frequencies --    977.2345              1003.9390              1041.2787
 Red. masses --      1.4876                 1.7070                 1.3887
 Frc consts  --      0.8370                 1.0137                 0.8871
 IR Inten    --     68.1103                47.1668                 7.7162

                     31                     32                     33
                      A                      A                      A
 Frequencies --   1060.6784              1103.6545              1141.8000
 Red. masses --      1.4287                 3.5970                 1.4648
 Frc consts  --      0.9470                 2.5814                 1.1252
 IR Inten    --      4.1647                 6.7869                13.4420

                     34                     35                     36
                      A                      A                      A
 Frequencies --   1163.8897              1177.3930              1197.2356
 Red. masses --      1.5530                 1.5176                 1.7246
 Frc consts  --      1.2395                 1.2395                 1.4565
 IR Inten    --    103.0325                59.7068                18.3515

                     37                     38                     39
                      A                      A                      A
 Frequencies --   1211.4541              1247.5756              1261.7088
 Red. masses --      1.6545                 1.3591                 1.3802
 Frc consts  --      1.4306                 1.2464                 1.2945
 IR Inten    --      0.9615                 5.5603                 5.3967

                     40                     41                     42
                      A                      A                      A
 Frequencies --   1284.6898              1323.2221              1332.6485
 Red. masses --      1.5312                 1.3630                 1.3294
 Frc consts  --      1.4890                 1.4061                 1.3910
 IR Inten    --      6.9035                47.4300                20.6403

                     43                     44                     45
                      A                      A                      A
 Frequencies --   1387.2033              1427.2154              1472.2768
 Red. masses --      1.9674                 1.7524                 1.0975
 Frc consts  --      2.2306                 2.1031                 1.4017
 IR Inten    --     20.0313                 5.2735                 0.8192

                     46                     47                     48
                      A                      A                      A
 Frequencies --   1638.7625              1807.1583              2633.9821
 Red. masses --      5.0734                 9.5320                 1.0692
 Frc consts  --      8.0276                18.3411                 4.3707
 IR Inten    --     23.1477               335.7020                66.8923

                     49                     50                     51
                      A                      A                      A
 Frequencies --   2648.1966              2930.7818              2997.3334
 Red. masses --      1.0378                 1.0813                 1.0848
 Frc consts  --      4.2882                 5.4720                 5.7422
 IR Inten    --      7.3865               119.2677                31.6545

                     52                     53                     54
                      A                      A                      A
 Frequencies --   3018.3535              3066.5066              3126.7614
 Red. masses --      1.0623                 1.0985                 1.0881
 Frc consts  --      5.7024                 6.0862                 6.2674
 IR Inten    --     16.5977                10.5539                 1.8489

                     55                     56                     57
                      A                      A                      A
 Frequencies --   3143.4441              3173.5892              3773.9347
 Red. masses --      1.0861                 1.0880                 1.0669
 Frc consts  --      6.3232                 6.4562                 8.9525
 IR Inten    --     20.6372                 8.1541                45.3352

 - Thermochemistry -
 -------------------
 Temperature   298.150 Kelvin.  Pressure   1.00000 Atm.
 Atom     1 has atomic number  6 and mass  12.00000

 Molecular mass:   186.01731 amu.
 Principal axes and moments of inertia in atomic units:
                           1         2         3
     Eigenvalues --  1238.335486476.216727396.79401
           X            0.99997   0.00812   0.00038
           Y           -0.00812   0.99988  -0.01296
           Z           -0.00049   0.01296   0.99992
 This molecule is an asymmetric top.
 Rotational symmetry number  1.
 Warning -- assumption of classical behavior for rotation
           may cause significant error
 Rotational temperatures (Kelvin)      0.06994     0.01337     0.01171
 Rotational constants (GHZ):           1.45739     0.27867     0.24399
 Zero-point vibrational energy     399269.5 (Joules/Mol)
                                   95.42770 (Kcal/Mol)
 Warning -- explicit consideration of  19 degrees of freedom as
           vibrations may cause significant error
 Vibrational temperatures:     28.70    51.37    79.52    92.46   115.61
          (Kelvin)            170.47   211.92   277.88   319.81   343.23
                              356.91   411.11   463.21   494.30   539.26
                              612.39   657.45   733.07   751.78   928.41
                             1008.58  1034.52  1089.34  1138.68  1206.04
                             1286.76  1393.19  1406.02  1444.44  1498.17
                             1526.08  1587.91  1642.80  1674.58  1694.01
                             1722.55  1743.01  1794.98  1815.32  1848.38
                             1903.82  1917.38  1995.88  2053.44  2118.28
                             2357.81  2600.10  3789.71  3810.16  4216.74
                             4312.49  4342.74  4412.02  4498.71  4522.72
                             4566.09  5429.85

 Zero-point correction=                           0.152074 (Hartree/Particle)
 Thermal correction to Energy=                    0.166042
 Thermal correction to Enthalpy=                  0.166987
 Thermal correction to Gibbs Free Energy=         0.108485
 Sum of electronic and zero-point Energies=          -1182.074526
 Sum of electronic and thermal Energies=             -1182.060557
 Sum of electronic and thermal Enthalpies=           -1182.059613
 Sum of electronic and thermal Free Energies=        -1182.118114

                     E (Thermal)             CV                S
                      KCal/Mol        Cal/Mol-Kelvin    Cal/Mol-Kelvin
 Total                  104.193             47.908            123.126
 Electronic               0.000              0.000              0.000
 Translational            0.889              2.981             41.568
 Rotational               0.889              2.981             32.450
 Vibrational            102.416             41.946             49.108
 Vibration     1          0.593              1.986              6.639
 Vibration     2          0.594              1.982              5.484
 Vibration     3          0.596              1.975              4.619
 Vibration     4          0.597              1.971              4.322
 Vibration     5          0.600              1.962              3.882
 Vibration     6          0.609              1.934              3.125
 Vibration     7          0.617              1.906              2.707
 Vibration     8          0.635              1.849              2.197
 Vibration     9          0.648              1.807              1.940
 Vibration    10          0.657              1.782              1.814
 Vibration    11          0.662              1.766              1.744
 Vibration    12          0.684              1.700              1.499
 Vibration    13          0.707              1.631              1.300
 Vibration    14          0.722              1.588              1.196
 Vibration    15          0.746              1.524              1.060
 Vibration    16          0.787              1.414              0.873
 Vibration    17          0.815              1.346              0.775
 Vibration    18          0.865              1.229              0.635
 Vibration    19          0.877              1.200              0.604

                           ! Non-Optimized Parameters !
 Normal termination of Gaussian 16 at Thu May 18 04:52:57 2023.
