 Gaussian 16, Revision A.03,
 Gaussian 16:  ES64L-G16RevA.03 25-Dec-2016

 -----------------------------
 # opt freq b3lyp/6-31g(2df,p)
 -----------------------------

 -------------------
 Title Card Required
 -------------------
 Symbolic Z-matrix:
 Charge =  0 Multiplicity = 2

 SCF Done:  E(UB3LYP) =  -460.524243643     A.U. after   25 cycles
 SCF Done:  E(UB3LYP) =  -460.557114201     A.U. after   24 cycles
 SCF Done:  E(UB3LYP) =  -460.582782890     A.U. after   21 cycles
 SCF Done:  E(UB3LYP) =  -460.594773697     A.U. after   18 cycles
 SCF Done:  E(UB3LYP) =  -460.602104990     A.U. after   19 cycles
 SCF Done:  E(UB3LYP) =  -460.602428344     A.U. after   15 cycles
 SCF Done:  E(UB3LYP) =  -460.603209515     A.U. after   18 cycles
 SCF Done:  E(UB3LYP) =  -460.603730515     A.U. after   16 cycles
 SCF Done:  E(UB3LYP) =  -460.603848882     A.U. after   14 cycles
 SCF Done:  E(UB3LYP) =  -460.603896533     A.U. after   14 cycles
 SCF Done:  E(UB3LYP) =  -460.604373171     A.U. after   15 cycles
 SCF Done:  E(UB3LYP) =  -460.604698303     A.U. after   16 cycles
 SCF Done:  E(UB3LYP) =  -460.604967941     A.U. after   15 cycles
 SCF Done:  E(UB3LYP) =  -460.605123606     A.U. after   15 cycles
 SCF Done:  E(UB3LYP) =  -460.605141806     A.U. after   14 cycles
 SCF Done:  E(UB3LYP) =  -460.605155533     A.U. after   13 cycles
 SCF Done:  E(UB3LYP) =  -460.605161042     A.U. after   12 cycles
 SCF Done:  E(UB3LYP) =  -460.605161891     A.U. after   11 cycles
 SCF Done:  E(UB3LYP) =  -460.605162224     A.U. after   11 cycles
 Optimization completed.
    -- Stationary point found.
 Normal termination of Gaussian 16 at Thu May 18 18:08:24 2023.

 ----------------------------------------------------------------------
 #N Geom=AllCheck Guess=TCheck SCRF=Check GenChk UB3LYP/6-31G(2df,p) Fr
 eq
 ----------------------------------------------------------------------

 Structure from the checkpoint file:  "[CH]C1dC[C]qCCCdOrCO1.chk"
 -------------------
 Title Card Required
 -------------------
 Charge =  0 Multiplicity = 2

                         Standard orientation:
 ---------------------------------------------------------------------
 Center     Atomic      Atomic             Coordinates (Angstroms)
 Number     Number       Type             X           Y           Z
 ---------------------------------------------------------------------
      1          6           0        3.810571   -0.901916    0.342508
      2          6           0        2.641388   -0.329385    0.129285
      3          6           0        1.372064   -0.951250   -0.257901
      4          6           0        0.430017   -0.008180   -0.373350
      5          6           0       -1.008119   -0.162344   -0.754875
      6          6           0       -1.984740    0.179373    0.396947
      7          6           0       -3.425104    0.107612   -0.059493
      8          8           0       -4.281490   -0.557165    0.461332
      9          6           0        1.066950    1.321631   -0.055657
     10          8           0        2.430473    1.029250    0.245879
     11          1           0        4.219595   -1.895930    0.322167
     12          1           0        1.257908   -2.013488   -0.422975
     13          1           0       -1.188028   -1.189918   -1.086866
     14          1           0       -1.233362    0.490024   -1.611097
     15          1           0       -1.800582    1.207701    0.738203
     16          1           0       -1.846612   -0.491917    1.248237
     17          1           0       -3.651489    0.736431   -0.953726
     18          1           0        0.610028    1.826303    0.808356
     19          1           0        1.022511    2.020861   -0.904773
 ---------------------------------------------------------------------

 SCF Done:  E(UB3LYP) =  -460.605162224     A.U. after    1 cycles

 The electronic state is 2-A.
 Alpha  occ. eigenvalues --  -19.16660 -19.14963 -10.28187 -10.25017 -10.24468
 Alpha  occ. eigenvalues --  -10.22028 -10.21272 -10.21129 -10.20241 -10.18989
 Alpha  occ. eigenvalues --   -1.06868  -1.05657  -0.84045  -0.79164  -0.77343
 Alpha  occ. eigenvalues --   -0.68351  -0.67946  -0.58789  -0.57414  -0.54720
 Alpha  occ. eigenvalues --   -0.51082  -0.49422  -0.48498  -0.45822  -0.45125
 Alpha  occ. eigenvalues --   -0.44695  -0.42413  -0.40765  -0.38731  -0.38305
 Alpha  occ. eigenvalues --   -0.36905  -0.35911  -0.34263  -0.28890  -0.26026
 Alpha  occ. eigenvalues --   -0.24171  -0.21803
 Alpha virt. eigenvalues --   -0.03554  -0.01957   0.07519   0.09050   0.09940
 Alpha virt. eigenvalues --    0.10520   0.10993   0.12233   0.14067   0.14985
 Alpha virt. eigenvalues --    0.15736   0.16846   0.19332   0.20616   0.22455

  Beta  occ. eigenvalues --  -19.16616 -19.14963 -10.28187 -10.25009 -10.24604
  Beta  occ. eigenvalues --  -10.22014 -10.21323 -10.21134 -10.20076 -10.17433
  Beta  occ. eigenvalues --   -1.06758  -1.05658  -0.84022  -0.78727  -0.76629
  Beta  occ. eigenvalues --   -0.68267  -0.66295  -0.58786  -0.57212  -0.53702
  Beta  occ. eigenvalues --   -0.50650  -0.49337  -0.48572  -0.45795  -0.44956
  Beta  occ. eigenvalues --   -0.43926  -0.42373  -0.40565  -0.38629  -0.38091
  Beta  occ. eigenvalues --   -0.36899  -0.35940  -0.34054  -0.28936  -0.26004
  Beta  occ. eigenvalues --   -0.20570
  Beta virt. eigenvalues --   -0.07545  -0.03407  -0.01517   0.07609   0.09426
  Beta virt. eigenvalues --    0.10171   0.10541   0.11014   0.12436   0.14187
  Beta virt. eigenvalues --    0.15290   0.16018   0.16908   0.19470   0.20702

 Mulliken charges and spin densities:
               1          2
     1  C   -0.386509   1.040919
     2  C    0.425311  -0.082052
     3  C   -0.306853   0.075724
     4  C    0.304697  -0.037309
     5  C   -0.336030   0.006408
     6  C   -0.272612  -0.001696
     7  C    0.161024  -0.000121
     8  O   -0.229261  -0.000272
     9  C   -0.174298   0.006436
    10  O   -0.270816   0.008517
    11  H    0.151866  -0.004662
    12  H    0.117413  -0.002300
    13  H    0.127464  -0.000214
    14  H    0.117560  -0.001210
    15  H    0.125709   0.000098
    16  H    0.134186   0.000053
    17  H    0.072751   0.000020
    18  H    0.119579  -0.004116
    19  H    0.118821  -0.004223
 Sum of Mulliken charges =  -0.00000   1.00000

 Dipole moment (field-independent basis, Debye):
    X=             -0.4065    Y=              0.4129    Z=             -1.4709  Tot=              1.5809
 Quadrupole moment (field-independent basis, Debye-Ang):
   XX=            -80.3019   YY=            -54.0037   ZZ=            -58.6910
   XY=             -9.3336   XZ=              2.4723   YZ=              0.4395

  Exact polarizability: 137.501 -19.111  84.561   7.270  -4.381  60.893
 Approx polarizability: 192.326 -33.607 137.716  10.917 -10.001  94.899

                      1                      2                      3
                      A                      A                      A
 Frequencies --     41.9747                57.6949                66.4645
 Red. masses --      4.1854                 3.4880                 3.3918
 Frc consts  --      0.0043                 0.0068                 0.0088
 IR Inten    --      4.1813                 6.2716                 2.9410

                      4                      5                      6
                      A                      A                      A
 Frequencies --    115.5187               162.5882               231.9580
 Red. masses --      3.8256                 3.5967                 3.1550
 Frc consts  --      0.0301                 0.0560                 0.1000
 IR Inten    --      0.2136                 1.5436                 1.2917

                      7                      8                      9
                      A                      A                      A
 Frequencies --    272.2187               286.8994               402.1406
 Red. masses --      3.7222                 2.4886                 2.3512
 Frc consts  --      0.1625                 0.1207                 0.2240
 IR Inten    --      1.4005                 1.2721                 6.9988

                     10                     11                     12
                      A                      A                      A
 Frequencies --    443.8087               474.0353               532.4291
 Red. masses --      2.8397                 1.2838                 2.4401
 Frc consts  --      0.3295                 0.1700                 0.4076
 IR Inten    --     23.7277                37.6791                18.8177

                     13                     14                     15
                      A                      A                      A
 Frequencies --    644.5680               651.4246               707.0328
 Red. masses --      3.5700                 4.9132                 5.8262
 Frc consts  --      0.8739                 1.2284                 1.7160
 IR Inten    --      0.9266                 0.0281                 2.3706

                     16                     17                     18
                      A                      A                      A
 Frequencies --    760.6349               768.3246               846.5495
 Red. masses --      1.3551                 1.5934                 1.7307
 Frc consts  --      0.4619                 0.5542                 0.7308
 IR Inten    --      9.9977                39.9018                 2.5121

                     19                     20                     21
                      A                      A                      A
 Frequencies --    885.6931               912.6496               923.6848
 Red. masses --      1.4596                 3.6677                 3.2006
 Frc consts  --      0.6746                 1.7999                 1.6089
 IR Inten    --     14.9987                16.4705                17.6083

                     22                     23                     24
                      A                      A                      A
 Frequencies --    983.7048              1022.1420              1054.1987
 Red. masses --      2.9448                 1.6307                 2.9574
 Frc consts  --      1.6789                 1.0038                 1.9365
 IR Inten    --     14.1379                 7.9634                44.6891

                     25                     26                     27
                      A                      A                      A
 Frequencies --   1078.9375              1092.6893              1168.7045
 Red. masses --      3.5888                 2.4623                 2.7402
 Frc consts  --      2.4615                 1.7322                 2.2052
 IR Inten    --      7.2965                39.2022                37.1915

                     28                     29                     30
                      A                      A                      A
 Frequencies --   1189.7659              1189.8691              1202.4361
 Red. masses --      1.7543                 1.4740                 1.1612
 Frc consts  --      1.4631                 1.2296                 0.9892
 IR Inten    --     22.2768                 9.3180                 1.7348

                     31                     32                     33
                      A                      A                      A
 Frequencies --   1265.1431              1290.6881              1341.3309
 Red. masses --      1.3909                 1.4122                 1.6133
 Frc consts  --      1.3117                 1.3861                 1.7102
 IR Inten    --      0.3948                 9.4631                 9.4838

                     34                     35                     36
                      A                      A                      A
 Frequencies --   1360.9405              1385.7362              1429.1148
 Red. masses --      1.4408                 1.7522                 1.1906
 Frc consts  --      1.5723                 1.9824                 1.4326
 IR Inten    --     13.7976                 1.3103                 7.2408

                     37                     38                     39
                      A                      A                      A
 Frequencies --   1462.7226              1486.7624              1507.5972
 Red. masses --      1.0859                 1.0992                 1.0872
 Frc consts  --      1.3689                 1.4316                 1.4558
 IR Inten    --      2.7491                 5.4373                 2.4450

                     40                     41                     42
                      A                      A                      A
 Frequencies --   1677.3010              1690.8533              1839.3162
 Red. masses --      8.4713                 7.4087                10.1671
 Frc consts  --     14.0417                12.4798                20.2655
 IR Inten    --     30.4088                46.8595               214.2766

                     43                     44                     45
                      A                      A                      A
 Frequencies --   2847.6181              2984.5738              3005.1351
 Red. masses --      1.0815                 1.0573                 1.0696
 Frc consts  --      5.1672                 5.5491                 5.6912
 IR Inten    --    115.7078                64.2223                22.4537

                     46                     47                     48
                      A                      A                      A
 Frequencies --   3006.8804              3021.8868              3075.2003
 Red. masses --      1.0999                 1.0667                 1.0926
 Frc consts  --      5.8590                 5.7391                 6.0880
 IR Inten    --     38.8826                14.6003                12.4512

                     49                     50                     51
                      A                      A                      A
 Frequencies --   3111.5747              3234.5848              3311.4451
 Red. masses --      1.0975                 1.0964                 1.1027
 Frc consts  --      6.2609                 6.7589                 7.1241
 IR Inten    --     12.4808                 3.2447                 9.4347

 - Thermochemistry -
 -------------------
 Temperature   298.150 Kelvin.  Pressure   1.00000 Atm.
 Atom     1 has atomic number  6 and mass  12.00000

 Molecular mass:   137.06025 amu.
 Principal axes and moments of inertia in atomic units:
                           1         2         3
     Eigenvalues --   394.420693408.083323618.01366
           X            0.99992  -0.01232   0.00392
           Y            0.01233   0.99992  -0.00139
           Z           -0.00390   0.00144   0.99999
 This molecule is an asymmetric top.
 Rotational symmetry number  1.
 Rotational temperatures (Kelvin)      0.21960     0.02541     0.02394
 Rotational constants (GHZ):           4.57568     0.52955     0.49882
 Zero-point vibrational energy     391819.7 (Joules/Mol)
                                   93.64717 (Kcal/Mol)
 Warning -- explicit consideration of  12 degrees of freedom as
           vibrations may cause significant error
 Vibrational temperatures:     60.39    83.01    95.63   166.21   233.93
          (Kelvin)            333.74   391.66   412.78   578.59   638.54
                              682.03   766.05   927.39   937.25  1017.26
                             1094.38  1105.45  1218.00  1274.31  1313.10
                             1328.98  1415.33  1470.63  1516.76  1552.35
                             1572.14  1681.51  1711.81  1711.96  1730.04
                             1820.26  1857.01  1929.88  1958.09  1993.77
                             2056.18  2104.53  2139.12  2169.10  2413.26
                             2432.76  2646.37  4097.09  4294.14  4323.72
                             4326.23  4347.82  4424.53  4476.86  4653.85
                             4764.43

 Zero-point correction=                           0.149236 (Hartree/Particle)
 Thermal correction to Energy=                    0.159382
 Thermal correction to Enthalpy=                  0.160326
 Thermal correction to Gibbs Free Energy=         0.111614
 Sum of electronic and zero-point Energies=           -460.455926
 Sum of electronic and thermal Energies=              -460.445780
 Sum of electronic and thermal Enthalpies=            -460.444836
 Sum of electronic and thermal Free Energies=         -460.493548

                     E (Thermal)             CV                S
                      KCal/Mol        Cal/Mol-Kelvin    Cal/Mol-Kelvin
 Total                  100.014             36.024            102.523
 Electronic               0.000              0.000              1.377
 Translational            0.889              2.981             40.658
 Rotational               0.889              2.981             29.965
 Vibrational             98.236             30.062             30.523
 Vibration     1          0.595              1.980              5.164
 Vibration     2          0.596              1.974              4.535
 Vibration     3          0.598              1.970              4.255
 Vibration     4          0.608              1.937              3.174
 Vibration     5          0.623              1.888              2.519
 Vibration     6          0.653              1.792              1.864
 Vibration     7          0.675              1.725              1.582
 Vibration     8          0.684              1.698              1.492
 Vibration     9          0.768              1.466              0.955
 Vibration    10          0.803              1.375              0.815
 Vibration    11          0.831              1.308              0.726
 Vibration    12          0.887              1.178              0.582

                           ! Non-Optimized Parameters !
 Normal termination of Gaussian 16 at Thu May 18 19:07:43 2023.
