 Gaussian 16, Revision A.03,
 Gaussian 16:  ES64L-G16RevA.03 25-Dec-2016

 -----------------------------
 # opt freq b3lyp/6-31g(2df,p)
 -----------------------------

 -------------------
 Title Card Required
 -------------------
 Symbolic Z-matrix:
 Charge =  0 Multiplicity = 1

 SCF Done:  E(RB3LYP) =  -379.687929149     A.U. after   17 cycles
 SCF Done:  E(RB3LYP) =  -379.762936084     A.U. after   14 cycles
 SCF Done:  E(RB3LYP) =  -379.791465018     A.U. after   15 cycles
 SCF Done:  E(RB3LYP) =  -379.797546356     A.U. after   13 cycles
 SCF Done:  E(RB3LYP) =  -379.801095230     A.U. after   15 cycles
 SCF Done:  E(RB3LYP) =  -379.801595153     A.U. after   13 cycles
 SCF Done:  E(RB3LYP) =  -379.801923148     A.U. after   13 cycles
 SCF Done:  E(RB3LYP) =  -379.802183758     A.U. after   12 cycles
 SCF Done:  E(RB3LYP) =  -379.803315974     A.U. after   14 cycles
 SCF Done:  E(RB3LYP) =  -379.804179766     A.U. after   14 cycles
 SCF Done:  E(RB3LYP) =  -379.805299651     A.U. after   12 cycles
 SCF Done:  E(RB3LYP) =  -379.807122442     A.U. after   13 cycles
 SCF Done:  E(RB3LYP) =  -379.809769662     A.U. after   13 cycles
 SCF Done:  E(RB3LYP) =  -379.806386703     A.U. after   15 cycles
 SCF Done:  E(RB3LYP) =  -379.810416591     A.U. after   13 cycles
 SCF Done:  E(RB3LYP) =  -379.810574528     A.U. after   12 cycles
 SCF Done:  E(RB3LYP) =  -379.810584630     A.U. after    9 cycles
 SCF Done:  E(RB3LYP) =  -379.810585889     A.U. after    8 cycles
 SCF Done:  E(RB3LYP) =  -379.810586112     A.U. after    8 cycles
 Optimization completed.
    -- Stationary point found.
 Normal termination of Gaussian 16 at Wed May 17 00:54:15 2023.

 ----------------------------------------------------------------------
 #N Geom=AllCheck Guess=TCheck SCRF=Check GenChk RB3LYP/6-31G(2df,p) Fr
 eq
 ----------------------------------------------------------------------

 Structure from the checkpoint file:  "[N][C]C1dCCdNCdCC1.chk"
 -------------------
 Title Card Required
 -------------------
 Charge =  0 Multiplicity = 1

                         Standard orientation:
 ---------------------------------------------------------------------
 Center     Atomic      Atomic             Coordinates (Angstroms)
 Number     Number       Type             X           Y           Z
 ---------------------------------------------------------------------
      1          7           0        3.352438   -0.010658   -0.397740
      2          6           0        2.227029    0.084533   -0.137566
      3          6           0        0.841270    0.158804    0.192710
      4          6           0        0.146557    1.303996   -0.005711
      5          6           0       -1.287767    1.426605    0.173189
      6          7           0       -2.201124    0.540966   -0.059914
      7          6           0       -1.923006   -0.736844   -0.505601
      8          6           0       -0.878765   -1.517673   -0.172224
      9          6           0        0.173993   -1.060970    0.802391
     10          1           0        0.675024    2.195478   -0.332824
     11          1           0       -1.651907    2.420114    0.443123
     12          1           0       -2.701979   -1.142116   -1.147841
     13          1           0       -0.803712   -2.512118   -0.600211
     14          1           0        0.905382   -1.846010    0.996544
     15          1           0       -0.277868   -0.778205    1.761658
 ---------------------------------------------------------------------

 SCF Done:  E(RB3LYP) =  -379.810586112     A.U. after    1 cycles

 The electronic state is 1-A.
 Alpha  occ. eigenvalues --  -14.34824 -14.34121 -10.25579 -10.24942 -10.23072
 Alpha  occ. eigenvalues --  -10.22576 -10.22571 -10.22170 -10.21157  -0.94984
 Alpha  occ. eigenvalues --   -0.91417  -0.84763  -0.80198  -0.70725  -0.70028
 Alpha  occ. eigenvalues --   -0.61192  -0.55883  -0.53139  -0.49354  -0.48306
 Alpha  occ. eigenvalues --   -0.45345  -0.43637  -0.41121  -0.39556  -0.36996
 Alpha  occ. eigenvalues --   -0.36909  -0.36179  -0.33962  -0.29637  -0.27136
 Alpha  occ. eigenvalues --   -0.24750
 Alpha virt. eigenvalues --   -0.08918  -0.01968   0.02666   0.05030   0.07637
 Alpha virt. eigenvalues --    0.10780   0.11019   0.12823   0.14140   0.16535
 Alpha virt. eigenvalues --    0.17314   0.19247   0.20635   0.24393   0.25595

 Mulliken charges:
               1
     1  N   -0.326365
     2  C    0.227180
     3  C    0.131315
     4  C   -0.131797
     5  C   -0.018529
     6  N   -0.209721
     7  C    0.026012
     8  C   -0.084249
     9  C   -0.362718
    10  H    0.127708
    11  H    0.118833
    12  H    0.115695
    13  H    0.112165
    14  H    0.135592
    15  H    0.138880
 Sum of Mulliken charges =  -0.00000

 Dipole moment (field-independent basis, Debye):
    X=             -2.1213    Y=             -0.2024    Z=              0.7229  Tot=              2.2502
 Quadrupole moment (field-independent basis, Debye-Ang):
   XX=            -70.1232   YY=            -44.4475   ZZ=            -50.8765
   XY=              1.6077   XZ=              3.2898   YZ=              0.3004

  Exact polarizability: 114.483  -4.356  87.662   1.998   2.590  48.681
 Approx polarizability: 205.193 -19.274 152.557   2.256   5.369  77.597

                      1                      2                      3
                      A                      A                      A
 Frequencies --     96.8237               155.5007               233.7524
 Red. masses --      5.4322                 7.0952                 2.7379
 Frc consts  --      0.0300                 0.1011                 0.0881
 IR Inten    --      3.9996                 9.7537                 2.8392

                      4                      5                      6
                      A                      A                      A
 Frequencies --    313.8271               344.0546               374.1532
 Red. masses --      4.1487                 5.9088                 4.6452
 Frc consts  --      0.2407                 0.4121                 0.3831
 IR Inten    --      3.1254                 1.7115                 2.1989

                      7                      8                      9
                      A                      A                      A
 Frequencies --    402.8909               572.2689               596.5307
 Red. masses --      3.1027                 5.2042                 4.1743
 Frc consts  --      0.2967                 1.0042                 0.8752
 IR Inten    --     10.9443                 1.2219                 7.8872

                     10                     11                     12
                      A                      A                      A
 Frequencies --    607.3345               665.5364               779.3537
 Red. masses --      4.9762                 3.1600                 1.6468
 Frc consts  --      1.0814                 0.8247                 0.5893
 IR Inten    --      8.4198                 9.8877                11.5325

                     13                     14                     15
                      A                      A                      A
 Frequencies --    802.0057               856.8761               913.1282
 Red. masses --      3.5843                 1.8485                 2.4490
 Frc consts  --      1.3583                 0.7997                 1.2031
 IR Inten    --     25.4772                20.6056                 4.3324

                     16                     17                     18
                      A                      A                      A
 Frequencies --    929.5786               962.4140               973.1397
 Red. masses --      2.2335                 2.1390                 1.9920
 Frc consts  --      1.1371                 1.1673                 1.1115
 IR Inten    --      3.2384                 1.2440                 1.4917

                     19                     20                     21
                      A                      A                      A
 Frequencies --    987.8664              1022.1765              1105.2947
 Red. masses --      1.4904                 2.1873                 1.9879
 Frc consts  --      0.8569                 1.3465                 1.4309
 IR Inten    --      7.8582                 0.4801                 7.0010

                     22                     23                     24
                      A                      A                      A
 Frequencies --   1153.6968              1247.1696              1275.1066
 Red. masses --      2.5345                 1.3499                 1.2068
 Frc consts  --      1.9876                 1.2371                 1.1561
 IR Inten    --      2.8067                 1.3416                 1.5547

                     25                     26                     27
                      A                      A                      A
 Frequencies --   1324.0813              1349.1258              1408.4928
 Red. masses --      1.3537                 1.7985                 1.3238
 Frc consts  --      1.3983                 1.9287                 1.5473
 IR Inten    --      4.7307                 4.2664                 4.5755

                     28                     29                     30
                      A                      A                      A
 Frequencies --   1442.6652              1479.7689              1565.9062
 Red. masses --      1.4410                 1.0941                 9.4503
 Frc consts  --      1.7670                 1.4115                13.6530
 IR Inten    --      3.6295                 5.1057                 4.5543

                     31                     32                     33
                      A                      A                      A
 Frequencies --   1649.5286              1662.0695              2328.3121
 Red. masses --      5.9012                 6.2983                12.6774
 Frc consts  --      9.4605                10.2511                40.4915
 IR Inten    --     15.5351                11.8993                11.9042

                     34                     35                     36
                      A                      A                      A
 Frequencies --   3023.3686              3103.0384              3125.0460
 Red. masses --      1.0692                 1.0867                 1.0940
 Frc consts  --      5.7584                 6.1650                 6.2947
 IR Inten    --     15.5303                28.5614                 5.2192

                     37                     38                     39
                      A                      A                      A
 Frequencies --   3151.3566              3170.4152              3187.8974
 Red. masses --      1.0858                 1.0900                 1.0944
 Frc consts  --      6.3532                 6.4551                 6.5529
 IR Inten    --      9.3249                 2.9549                14.1863

 - Thermochemistry -
 -------------------
 Temperature   298.150 Kelvin.  Pressure   1.00000 Atm.
 Atom     1 has atomic number  7 and mass  14.00307

 Molecular mass:   118.05310 amu.
 Principal axes and moments of inertia in atomic units:
                           1         2         3
     Eigenvalues --   499.848321428.298801781.43500
           X            0.99996   0.00455   0.00831
           Y           -0.00455   0.99999  -0.00056
           Z           -0.00832   0.00052   0.99997
 This molecule is an asymmetric top.
 Rotational symmetry number  1.
 Warning -- assumption of classical behavior for rotation
           may cause significant error
 Rotational temperatures (Kelvin)      0.17328     0.06064     0.04862
 Rotational constants (GHZ):           3.61058     1.26356     1.01308
 Zero-point vibrational energy     301109.4 (Joules/Mol)
                                   71.96686 (Kcal/Mol)
 Warning -- explicit consideration of  10 degrees of freedom as
           vibrations may cause significant error
 Vibrational temperatures:    139.31   223.73   336.32   451.53   495.02
          (Kelvin)            538.32   579.67   823.37   858.27   873.82
                              957.56  1121.32  1153.91  1232.85  1313.79
                             1337.46  1384.70  1400.13  1421.32  1470.68
                             1590.27  1659.91  1794.40  1834.59  1905.06
                             1941.09  2026.51  2075.67  2129.06  2252.99
                             2373.30  2391.35  3349.92  4349.95  4464.58
                             4496.24  4534.10  4561.52  4586.67

 Zero-point correction=                           0.114686 (Hartree/Particle)
 Thermal correction to Energy=                    0.122037
 Thermal correction to Enthalpy=                  0.122981
 Thermal correction to Gibbs Free Energy=         0.082762
 Sum of electronic and zero-point Energies=           -379.695900
 Sum of electronic and thermal Energies=              -379.688550
 Sum of electronic and thermal Enthalpies=            -379.687605
 Sum of electronic and thermal Free Energies=         -379.727824

                     E (Thermal)             CV                S
                      KCal/Mol        Cal/Mol-Kelvin    Cal/Mol-Kelvin
 Total                   76.579             27.811             84.647
 Electronic               0.000              0.000              0.000
 Translational            0.889              2.981             40.213
 Rotational               0.889              2.981             28.632
 Vibrational             74.802             21.850             15.802
 Vibration     1          0.603              1.951              3.517
 Vibration     2          0.620              1.897              2.604
 Vibration     3          0.654              1.789              1.850
 Vibration     4          0.702              1.647              1.342
 Vibration     5          0.723              1.587              1.193
 Vibration     6          0.745              1.525              1.063
 Vibration     7          0.768              1.464              0.952
 Vibration     8          0.928              1.091              0.500
 Vibration     9          0.954              1.039              0.456
 Vibration    10          0.966              1.016              0.437

                           ! Non-Optimized Parameters !
 Normal termination of Gaussian 16 at Wed May 17 01:15:35 2023.
