 Gaussian 16, Revision A.03,
 Gaussian 16:  ES64L-G16RevA.03 25-Dec-2016

 -----------------------------
 # opt freq b3lyp/6-31g(2df,p)
 -----------------------------

 -------------------
 Title Card Required
 -------------------
 Symbolic Z-matrix:
 Charge =  0 Multiplicity = 1

 SCF Done:  E(RB3LYP) =  -434.513176463     A.U. after   19 cycles
 SCF Done:  E(RB3LYP) =  -434.594218397     A.U. after   14 cycles
 SCF Done:  E(RB3LYP) =  -434.627162175     A.U. after   15 cycles
 SCF Done:  E(RB3LYP) =  -434.637208224     A.U. after   15 cycles
 SCF Done:  E(RB3LYP) =  -434.637880689     A.U. after   15 cycles
 SCF Done:  E(RB3LYP) =  -434.642070343     A.U. after   12 cycles
 SCF Done:  E(RB3LYP) =  -434.643692862     A.U. after   13 cycles
 SCF Done:  E(RB3LYP) =  -434.643679323     A.U. after   13 cycles
 SCF Done:  E(RB3LYP) =  -434.643806488     A.U. after   13 cycles
 SCF Done:  E(RB3LYP) =  -434.644111952     A.U. after   12 cycles
 SCF Done:  E(RB3LYP) =  -434.644158935     A.U. after   12 cycles
 SCF Done:  E(RB3LYP) =  -434.644160445     A.U. after   11 cycles
 SCF Done:  E(RB3LYP) =  -434.644160733     A.U. after    9 cycles
 SCF Done:  E(RB3LYP) =  -434.644160898     A.U. after   10 cycles
 SCF Done:  E(RB3LYP) =  -434.644160954     A.U. after   10 cycles
 SCF Done:  E(RB3LYP) =  -434.644160996     A.U. after    8 cycles
 SCF Done:  E(RB3LYP) =  -434.644161025     A.U. after    9 cycles
 SCF Done:  E(RB3LYP) =  -434.644161036     A.U. after    8 cycles
 SCF Done:  E(RB3LYP) =  -434.644161038     A.U. after    7 cycles
 Optimization completed.
    -- Stationary point found.
 Normal termination of Gaussian 16 at Sat May 20 19:15:23 2023.

 ----------------------------------------------------------------------
 #N Geom=AllCheck Guess=TCheck SCRF=Check GenChk RB3LYP/6-31G(2df,p) Fr
 eq
 ----------------------------------------------------------------------

 Structure from the checkpoint file:  "[N][C]CdCqOrO[CH][O].chk"
 -------------------
 Title Card Required
 -------------------
 Charge =  0 Multiplicity = 1

                         Standard orientation:
 ---------------------------------------------------------------------
 Center     Atomic      Atomic             Coordinates (Angstroms)
 Number     Number       Type             X           Y           Z
 ---------------------------------------------------------------------
      1          7           0       -3.519187    0.181069    0.023500
      2          6           0       -2.483260   -0.344528    0.016384
      3          6           0       -1.181398   -0.888753    0.007638
      4          6           0       -0.126456   -0.046597   -0.022805
      5          8           0       -0.194174    1.287701   -0.042231
      6          8           0        1.122137   -0.551035   -0.050002
      7          6           0        2.247310    0.252168    0.056672
      8          8           0        3.326079   -0.238548    0.003766
      9          1           0       -1.021624   -1.956587    0.023909
     10          1           0       -1.125230    1.557887   -0.018234
     11          1           0        2.011656    1.312529    0.190233
 ---------------------------------------------------------------------

 SCF Done:  E(RB3LYP) =  -434.644161038     A.U. after    1 cycles

 The electronic state is 1-A.
 Alpha  occ. eigenvalues --  -19.24410 -19.23689 -19.17368 -14.34068 -10.35970
 Alpha  occ. eigenvalues --  -10.34772 -10.23649 -10.23078  -1.17760  -1.11812
 Alpha  occ. eigenvalues --   -1.07081  -0.91542  -0.82600  -0.72129  -0.66585
 Alpha  occ. eigenvalues --   -0.59694  -0.57751  -0.52092  -0.51875  -0.48077
 Alpha  occ. eigenvalues --   -0.44540  -0.44288  -0.42571  -0.37686  -0.37285
 Alpha  occ. eigenvalues --   -0.37159  -0.34790  -0.31681  -0.26077
 Alpha virt. eigenvalues --   -0.05540  -0.00955   0.00979   0.04882   0.09937
 Alpha virt. eigenvalues --    0.11332   0.12314   0.16397   0.17188   0.23090
 Alpha virt. eigenvalues --    0.25187   0.28185   0.31220   0.37180   0.40464

 Mulliken charges:
               1
     1  N   -0.348852
     2  C    0.256250
     3  C   -0.422839
     4  C    0.556626
     5  O   -0.404645
     6  O   -0.217599
     7  C    0.168286
     8  O   -0.231434
     9  H    0.157023
    10  H    0.336452
    11  H    0.150732
 Sum of Mulliken charges =   0.00000

 Dipole moment (field-independent basis, Debye):
    X=              1.0181    Y=              1.0355    Z=              0.1944  Tot=              1.4651
 Quadrupole moment (field-independent basis, Debye-Ang):
   XX=            -67.3663   YY=            -39.7203   ZZ=            -43.5746
   XY=              4.3746   XZ=              0.5200   YZ=              0.0434

  Exact polarizability: 103.965   0.994  49.256  -0.309   0.308  28.983
 Approx polarizability: 164.708  -3.094  80.106  -1.248   0.422  44.370

                      1                      2                      3
                      A                      A                      A
 Frequencies --      9.5255                89.2608               111.6726
 Red. masses --      3.3991                 5.2309                 9.4791
 Frc consts  --      0.0002                 0.0246                 0.0696
 IR Inten    --      9.7333                23.6088                14.1138

                      4                      5                      6
                      A                      A                      A
 Frequencies --    186.2756               241.8307               391.0640
 Red. masses --      7.5049                 8.1473                 6.9305
 Frc consts  --      0.1534                 0.2807                 0.6245
 IR Inten    --      4.3496                 0.2566                 6.7034

                      7                      8                      9
                      A                      A                      A
 Frequencies --    481.4592               495.2120               541.3036
 Red. masses --      1.2459                 8.9219                 8.1431
 Frc consts  --      0.1702                 1.2891                 1.4058
 IR Inten    --     80.9653                 1.3336                19.4000

                     10                     11                     12
                      A                      A                      A
 Frequencies --    552.1024               672.0272               757.0207
 Red. masses --      4.7006                 2.6059                 4.7449
 Frc consts  --      0.8442                 0.6934                 1.6021
 IR Inten    --     26.3663                 1.1856                 3.1935

                     13                     14                     15
                      A                      A                      A
 Frequencies --    763.4396               961.4602              1016.0353
 Red. masses --      1.9905                 7.7506                 5.7062
 Frc consts  --      0.6835                 4.2213                 3.4707
 IR Inten    --     32.2631                16.3215               205.6833

                     16                     17                     18
                      A                      A                      A
 Frequencies --   1026.7317              1104.0031              1191.7592
 Red. masses --      1.6946                 2.3451                 1.9694
 Frc consts  --      1.0525                 1.6840                 1.6480
 IR Inten    --      6.8930               236.6144               295.0895

                     19                     20                     21
                      A                      A                      A
 Frequencies --   1329.8393              1395.7137              1450.4780
 Red. masses --      1.7177                 1.3363                 2.2518
 Frc consts  --      1.7898                 1.5337                 2.7913
 IR Inten    --    126.3308                22.7689                80.8148

                     22                     23                     24
                      A                      A                      A
 Frequencies --   1692.1591              1882.6316              2317.0280
 Red. masses --      7.6771                 9.2019                12.5448
 Frc consts  --     12.9518                19.2158                39.6804
 IR Inten    --    666.5985               326.7095                63.6216

                     25                     26                     27
                      A                      A                      A
 Frequencies --   3108.3795              3242.2036              3727.4501
 Red. masses --      1.0968                 1.0903                 1.0656
 Frc consts  --      6.2440                 6.7529                 8.7232
 IR Inten    --     12.0199                 9.5656                71.3786

 - Thermochemistry -
 -------------------
 Temperature   298.150 Kelvin.  Pressure   1.00000 Atm.
 Atom     1 has atomic number  7 and mass  14.00307

 Molecular mass:   113.01129 amu.
 Principal axes and moments of inertia in atomic units:
                           1         2         3
     Eigenvalues --   187.903661889.968112076.71926
           X            0.99998   0.00599   0.00073
           Y           -0.00599   0.99998   0.00338
           Z           -0.00071  -0.00338   0.99999
 This molecule is an asymmetric top.
 Rotational symmetry number  1.
 Rotational temperatures (Kelvin)      0.46095     0.04583     0.04171
 Rotational constants (GHZ):           9.60461     0.95491     0.86903
 Zero-point vibrational energy     183854.5 (Joules/Mol)
                                   43.94227 (Kcal/Mol)
 Warning -- explicit consideration of  10 degrees of freedom as
           vibrations may cause significant error
 Vibrational temperatures:     13.71   128.43   160.67   268.01   347.94
          (Kelvin)            562.65   692.71   712.50   778.82   794.35
                              966.90  1089.18  1098.42  1383.33  1461.85
                             1477.24  1588.41  1714.68  1913.34  2008.12
                             2086.91  2434.64  2708.69  3333.69  4472.26
                             4664.81  5362.97

 Zero-point correction=                           0.070026 (Hartree/Particle)
 Thermal correction to Energy=                    0.077983
 Thermal correction to Enthalpy=                  0.078927
 Thermal correction to Gibbs Free Energy=         0.035214
 Sum of electronic and zero-point Energies=           -434.574135
 Sum of electronic and thermal Energies=              -434.566178
 Sum of electronic and thermal Enthalpies=            -434.565234
 Sum of electronic and thermal Free Energies=         -434.608947

                     E (Thermal)             CV                S
                      KCal/Mol        Cal/Mol-Kelvin    Cal/Mol-Kelvin
 Total                   48.935             26.143             92.001
 Electronic               0.000              0.000              0.000
 Translational            0.889              2.981             40.083
 Rotational               0.889              2.981             28.091
 Vibrational             47.158             20.181             23.827
 Vibration     1          0.593              1.987              8.108
 Vibration     2          0.602              1.957              3.676
 Vibration     3          0.607              1.940              3.240
 Vibration     4          0.632              1.859              2.265
 Vibration     5          0.658              1.776              1.789
 Vibration     6          0.759              1.489              0.996
 Vibration     7          0.838              1.291              0.706
 Vibration     8          0.851              1.261              0.670
 Vibration     9          0.896              1.159              0.562
 Vibration    10          0.907              1.135              0.540

 Optimization completed.
    -- Stationary point found.
 Normal termination of Gaussian 16 at Sat May 20 19:26:55 2023.
