 Gaussian 16, Revision A.03,
 Gaussian 16:  ES64L-G16RevA.03 25-Dec-2016

 -----------------------------
 # opt freq b3lyp/6-31g(2df,p)
 -----------------------------

 -------------------
 Title Card Required
 -------------------
 Symbolic Z-matrix:
 Charge =  0 Multiplicity = 2

 SCF Done:  E(UB3LYP) =  -961.912865406     A.U. after   32 cycles
 SCF Done:  E(UB3LYP) =  -961.963708631     A.U. after   20 cycles
 SCF Done:  E(UB3LYP) =  -961.999359690     A.U. after   25 cycles
 SCF Done:  E(UB3LYP) =  -962.015082246     A.U. after   33 cycles
 SCF Done:  E(UB3LYP) =  -962.024928444     A.U. after   20 cycles
 SCF Done:  E(UB3LYP) =  -962.026847648     A.U. after   19 cycles
 SCF Done:  E(UB3LYP) =  -962.027482541     A.U. after   19 cycles
 SCF Done:  E(UB3LYP) =  -962.027635600     A.U. after   14 cycles
 SCF Done:  E(UB3LYP) =  -962.027682555     A.U. after   17 cycles
 SCF Done:  E(UB3LYP) =  -962.027692042     A.U. after   16 cycles
 SCF Done:  E(UB3LYP) =  -962.025914305     A.U. after   23 cycles
 SCF Done:  E(UB3LYP) =  -962.031729198     A.U. after   24 cycles
 SCF Done:  E(UB3LYP) =  -962.030307908     A.U. after   20 cycles
 SCF Done:  E(UB3LYP) =  -962.032327218     A.U. after   19 cycles
 SCF Done:  E(UB3LYP) =  -962.031223397     A.U. after   23 cycles
 SCF Done:  E(UB3LYP) =  -962.033156173     A.U. after   19 cycles
 SCF Done:  E(UB3LYP) =  -962.033207412     A.U. after   14 cycles
 SCF Done:  E(UB3LYP) =  -962.033216376     A.U. after   10 cycles
 SCF Done:  E(UB3LYP) =  -962.033220159     A.U. after   13 cycles
 Optimization completed.
    -- Stationary point found.
 Normal termination of Gaussian 16 at Sat May 20 17:28:34 2023.

 ----------------------------------------------------------------------
 #N Geom=AllCheck Guess=TCheck SCRF=Check GenChk UB3LYP/6-31G(2df,p) Fr
 eq
 ----------------------------------------------------------------------

 Structure from the checkpoint file:  "[N]dNC1dCC2SCdNCqdC1OrC2dN.chk"
 -------------------
 Title Card Required
 -------------------
 Charge =  0 Multiplicity = 2

                         Standard orientation:
 ---------------------------------------------------------------------
 Center     Atomic      Atomic             Coordinates (Angstroms)
 Number     Number       Type             X           Y           Z
 ---------------------------------------------------------------------
      1          7           0        3.756848    0.018870    0.008860
      2          7           0        2.906290   -0.703673   -0.385570
      3          6           0        1.496604   -0.513057   -0.148439
      4          6           0        0.656059   -1.490748   -0.540093
      5          6           0       -0.818732   -1.400194   -0.210744
      6         16           0       -1.851551   -0.283457   -1.369401
      7          6           0       -2.027175    1.250823   -0.445370
      8          7           0       -1.319893    1.659150    0.539052
      9          6           0       -0.332492    0.677395    0.855976
     10          6           0        0.909399    0.753585    0.337152
     11          8           0        1.511700    1.882754   -0.095809
     12          6           0       -0.908359   -0.683121    1.095006
     13          7           0       -1.451354   -1.164041    2.130769
     14          1           0        1.049156   -2.391278   -0.998041
     15          1           0       -1.312253   -2.372291   -0.216822
     16          1           0       -2.839863    1.859822   -0.841181
     17          1           0        0.937742    2.631855    0.115491
     18          1           0       -1.398619   -0.495063    2.904732
 ---------------------------------------------------------------------

 SCF Done:  E(UB3LYP) =  -962.033220159     A.U. after    1 cycles

 The electronic state is 2-A.
 Alpha  occ. eigenvalues --  -88.91760 -19.19559 -14.41548 -14.39278 -14.36224
 Alpha  occ. eigenvalues --  -14.33613 -10.28391 -10.27442 -10.26666 -10.26253
 Alpha  occ. eigenvalues --  -10.25934 -10.24008 -10.22866  -7.97989  -5.94450
 Alpha  occ. eigenvalues --   -5.94077  -5.93595  -1.08952  -1.06613  -0.97823
 Alpha  occ. eigenvalues --   -0.92613  -0.87435  -0.81136  -0.77679  -0.73489
 Alpha  occ. eigenvalues --   -0.67048  -0.64818  -0.62597  -0.57964  -0.55831
 Alpha  occ. eigenvalues --   -0.53217  -0.50321  -0.48530  -0.47054  -0.46514
 Alpha  occ. eigenvalues --   -0.45629  -0.44743  -0.41917  -0.41411  -0.41356
 Alpha  occ. eigenvalues --   -0.39452  -0.39371  -0.36501  -0.32752  -0.31740
 Alpha  occ. eigenvalues --   -0.30112  -0.28504  -0.26168  -0.22791  -0.20073
 Alpha virt. eigenvalues --   -0.09327  -0.04999  -0.03421  -0.01983   0.02031
 Alpha virt. eigenvalues --    0.03151   0.05265   0.08455   0.09251   0.11402
 Alpha virt. eigenvalues --    0.12957   0.15345   0.16496   0.17861   0.20132

  Beta  occ. eigenvalues --  -88.91764 -19.19543 -14.41180 -14.37730 -14.36220
  Beta  occ. eigenvalues --  -14.33613 -10.28386 -10.27427 -10.26274 -10.26246
  Beta  occ. eigenvalues --  -10.25935 -10.24085 -10.22842  -7.97994  -5.94458
  Beta  occ. eigenvalues --   -5.94083  -5.93599  -1.08837  -1.04904  -0.97803
  Beta  occ. eigenvalues --   -0.92603  -0.87131  -0.80928  -0.77108  -0.73409
  Beta  occ. eigenvalues --   -0.65977  -0.64617  -0.62567  -0.57582  -0.55724
  Beta  occ. eigenvalues --   -0.53096  -0.49391  -0.48500  -0.46641  -0.45685
  Beta  occ. eigenvalues --   -0.44985  -0.42664  -0.41446  -0.41213  -0.40866
  Beta  occ. eigenvalues --   -0.39335  -0.36634  -0.36103  -0.32750  -0.31706
  Beta  occ. eigenvalues --   -0.29774  -0.28417  -0.26168  -0.22502
  Beta virt. eigenvalues --   -0.08936  -0.05683  -0.04900  -0.02832  -0.01656
  Beta virt. eigenvalues --    0.02040   0.03158   0.05584   0.08591   0.09345
  Beta virt. eigenvalues --    0.11438   0.12974   0.15424   0.16843   0.17928

 Mulliken charges and spin densities:
               1          2
     1  N   -0.141338   0.760004
     2  N   -0.122014   0.134506
     3  C    0.276572   0.125431
     4  C   -0.143499  -0.051306
     5  C   -0.134952   0.004432
     6  S   -0.079189  -0.005480
     7  C   -0.018055   0.002891
     8  N   -0.223361   0.001367
     9  C   -0.093931   0.011038
    10  C    0.293698   0.007275
    11  O   -0.411402   0.002654
    12  C    0.316186  -0.000373
    13  N   -0.508330  -0.000346
    14  H    0.142703   0.007383
    15  H    0.145198  -0.000187
    16  H    0.151864  -0.000240
    17  H    0.316348   0.001000
    18  H    0.233501  -0.000048
 Sum of Mulliken charges =  -0.00000   1.00000

 Dipole moment (field-independent basis, Debye):
    X=             -2.3141    Y=              0.2620    Z=             -0.9315  Tot=              2.5082
 Quadrupole moment (field-independent basis, Debye-Ang):
   XX=            -92.8251   YY=            -74.3552   ZZ=            -80.1615
   XY=             -4.3453   XZ=              3.3010   YZ=              2.7220

  Exact polarizability: 144.507   4.908 108.340   2.791   5.024  97.661
 Approx polarizability: 243.183  23.935 202.236   7.174  23.601 185.449

                      1                      2                      3
                      A                      A                      A
 Frequencies --     77.0711               106.3974               133.6365
 Red. masses --     10.4618                 9.3511                 6.8844
 Frc consts  --      0.0366                 0.0624                 0.0724
 IR Inten    --      1.2280                 0.5094                 1.1994

                      4                      5                      6
                      A                      A                      A
 Frequencies --    166.5977               180.7567               196.5197
 Red. masses --     12.6784                 5.9342                 6.8512
 Frc consts  --      0.2073                 0.1142                 0.1559
 IR Inten    --      0.1895                 2.5641                 1.9252

                      7                      8                      9
                      A                      A                      A
 Frequencies --    291.1274               328.6979               342.0958
 Red. masses --      5.8178                 7.9590                 7.1506
 Frc consts  --      0.2905                 0.5066                 0.4930
 IR Inten    --      2.5956                 1.4492                 5.3664

                     10                     11                     12
                      A                      A                      A
 Frequencies --    377.1466               407.6290               456.8443
 Red. masses --      5.0085                 2.6309                 4.2820
 Frc consts  --      0.4197                 0.2576                 0.5265
 IR Inten    --      5.4083                26.6416                18.6484

                     13                     14                     15
                      A                      A                      A
 Frequencies --    476.2392               504.5235               512.8465
 Red. masses --      1.8438                 5.8792                 7.3245
 Frc consts  --      0.2464                 0.8817                 1.1350
 IR Inten    --     53.4313                20.3811                 8.7701

                     16                     17                     18
                      A                      A                      A
 Frequencies --    551.2848               603.0812               622.6564
 Red. masses --      7.9605                 9.2840                 4.3866
 Frc consts  --      1.4254                 1.9895                 1.0020
 IR Inten    --      0.9674                13.0194                16.4825

                     19                     20                     21
                      A                      A                      A
 Frequencies --    676.1352               701.8301               737.7873
 Red. masses --      8.4097                 6.4701                 5.3859
 Frc consts  --      2.2652                 1.8777                 1.7273
 IR Inten    --      1.4809                41.2312                13.1984

                     22                     23                     24
                      A                      A                      A
 Frequencies --    758.1502               815.2962               884.3006
 Red. masses --      7.8164                 5.2627                 2.1092
 Frc consts  --      2.6471                 2.0610                 0.9718
 IR Inten    --     37.4416                26.7574                34.4366

                     25                     26                     27
                      A                      A                      A
 Frequencies --    892.2080               901.6497               938.1373
 Red. masses --      1.8125                 1.6712                 1.6563
 Frc consts  --      0.8501                 0.8005                 0.8589
 IR Inten    --     26.6263                20.1191                44.7658

                     28                     29                     30
                      A                      A                      A
 Frequencies --    984.0256              1034.7814              1100.6715
 Red. masses --      1.8192                 2.7219                 2.5995
 Frc consts  --      1.0379                 1.7172                 1.8555
 IR Inten    --     26.3183                10.9234                 7.1221

                     31                     32                     33
                      A                      A                      A
 Frequencies --   1159.4671              1174.7557              1218.9214
 Red. masses --      1.5837                 2.2514                 2.7326
 Frc consts  --      1.2544                 1.8306                 2.3921
 IR Inten    --     35.1821                49.3879               205.0363

                     34                     35                     36
                      A                      A                      A
 Frequencies --   1274.0225              1286.4893              1323.6350
 Red. masses --      1.6932                 1.3521                 1.2351
 Frc consts  --      1.6192                 1.3184                 1.2749
 IR Inten    --      3.4376                57.9736                14.4453

                     37                     38                     39
                      A                      A                      A
 Frequencies --   1355.9732              1420.8916              1589.8755
 Red. masses --      2.2614                 2.4822                10.1822
 Frc consts  --      2.4498                 2.9526                15.1641
 IR Inten    --     25.4925                 3.7181                91.0418

                     40                     41                     42
                      A                      A                      A
 Frequencies --   1620.4379              1671.1058              1759.8570
 Red. masses --      8.4120                 9.6912                 9.8117
 Frc consts  --     13.0142                15.9455                17.9039
 IR Inten    --      5.0856                59.8038               100.6377

                     43                     44                     45
                      A                      A                      A
 Frequencies --   1834.2746              3120.1496              3138.3173
 Red. masses --     13.7214                 1.0866                 1.0911
 Frc consts  --     27.2006                 6.2327                 6.3313
 IR Inten    --     14.1161                 1.6832                 5.2775

                     46                     47                     48
                      A                      A                      A
 Frequencies --   3204.9033              3429.1503              3768.4945
 Red. masses --      1.0916                 1.0744                 1.0652
 Frc consts  --      6.6062                 7.4435                 8.9127
 IR Inten    --      0.3550                 0.5439                58.9217

 - Thermochemistry -
 -------------------
 Temperature   298.150 Kelvin.  Pressure   1.00000 Atm.
 Atom     1 has atomic number  7 and mass  14.00307

 Molecular mass:   193.01841 amu.
 Principal axes and moments of inertia in atomic units:
                           1         2         3
     Eigenvalues --  1454.268322898.340293129.02298
           X            0.99998  -0.00358  -0.00479
           Y            0.00359   0.99999   0.00338
           Z            0.00478  -0.00339   0.99998
 This molecule is an asymmetric top.
 Rotational symmetry number  1.
 Warning -- assumption of classical behavior for rotation
           may cause significant error
 Rotational temperatures (Kelvin)      0.05956     0.02988     0.02768
 Rotational constants (GHZ):           1.24100     0.62268     0.57677
 Zero-point vibrational energy     311692.1 (Joules/Mol)
                                   74.49620 (Kcal/Mol)
 Warning -- explicit consideration of  17 degrees of freedom as
           vibrations may cause significant error
 Vibrational temperatures:    110.89   153.08   192.27   239.70   260.07
          (Kelvin)            282.75   418.87   472.92   492.20   542.63
                              586.49   657.30   685.20   725.90   737.87
                              793.18   867.70   895.86   972.81  1009.78
                             1061.51  1090.81  1173.03  1272.31  1283.69
                             1297.27  1349.77  1415.79  1488.82  1583.62
                             1668.21  1690.21  1753.76  1833.03  1850.97
                             1904.42  1950.94  2044.35  2287.48  2331.45
                             2404.35  2532.04  2639.11  4489.20  4515.34
                             4611.14  4933.78  5422.02

 Zero-point correction=                           0.118717 (Hartree/Particle)
 Thermal correction to Energy=                    0.129672
 Thermal correction to Enthalpy=                  0.130616
 Thermal correction to Gibbs Free Energy=         0.081358
 Sum of electronic and zero-point Energies=           -961.914503
 Sum of electronic and thermal Energies=              -961.903548
 Sum of electronic and thermal Enthalpies=            -961.902604
 Sum of electronic and thermal Free Energies=         -961.951862

                     E (Thermal)             CV                S
                      KCal/Mol        Cal/Mol-Kelvin    Cal/Mol-Kelvin
 Total                   81.371             41.834            103.672
 Electronic               0.000              0.000              1.377
 Translational            0.889              2.981             41.678
 Rotational               0.889              2.981             30.956
 Vibrational             79.593             35.873             29.660
 Vibration     1          0.599              1.964              3.964
 Vibration     2          0.605              1.944              3.334
 Vibration     3          0.613              1.920              2.893
 Vibration     4          0.624              1.884              2.474
 Vibration     5          0.630              1.866              2.321
 Vibration     6          0.636              1.845              2.165
 Vibration     7          0.687              1.690              1.467
 Vibration     8          0.712              1.618              1.266
 Vibration     9          0.721              1.591              1.202
 Vibration    10          0.748              1.519              1.051
 Vibration    11          0.772              1.454              0.935
 Vibration    12          0.815              1.346              0.775
 Vibration    13          0.833              1.303              0.720
 Vibration    14          0.860              1.240              0.647
 Vibration    15          0.868              1.222              0.627
 Vibration    16          0.907              1.137              0.542
 Vibration    17          0.961              1.025              0.444

 Optimization completed.
    -- Stationary point found.
 Normal termination of Gaussian 16 at Sat May 20 19:33:52 2023.
