 Gaussian 16, Revision A.03,
 Gaussian 16:  ES64L-G16RevA.03 25-Dec-2016

 -----------------------------
 # opt freq b3lyp/6-31g(2df,p)
 -----------------------------

 -------------------
 Title Card Required
 -------------------
 Symbolic Z-matrix:
 Charge =  0 Multiplicity = 1

 SCF Done:  E(RB3LYP) =  -493.276030746     A.U. after   17 cycles
 SCF Done:  E(RB3LYP) =  -493.315845601     A.U. after   14 cycles
 SCF Done:  E(RB3LYP) =  -493.319133921     A.U. after   13 cycles
 SCF Done:  E(RB3LYP) =  -493.319367730     A.U. after   12 cycles
 SCF Done:  E(RB3LYP) =  -493.319396255     A.U. after   11 cycles
 SCF Done:  E(RB3LYP) =  -493.319422540     A.U. after   10 cycles
 Optimization completed.
    -- Stationary point found.
 Normal termination of Gaussian 16 at Wed May 17 12:19:22 2023.

 ----------------------------------------------------------------------
 #N Geom=AllCheck Guess=TCheck SCRF=Check GenChk RB3LYP/6-31G(2df,p) Fr
 eq
 ----------------------------------------------------------------------

 Structure from the checkpoint file:  "[N]dCdCqCCCdCOrN[O].chk"
 -------------------
 Title Card Required
 -------------------
 Charge =  0 Multiplicity = 1

                         Standard orientation:
 ---------------------------------------------------------------------
 Center     Atomic      Atomic             Coordinates (Angstroms)
 Number     Number       Type             X           Y           Z
 ---------------------------------------------------------------------
      1          7           0       -2.180796    2.558445   -0.000001
      2          6           0       -1.973152    1.416222    0.000000
      3          6           0       -1.719673    0.024308   -0.000000
      4          6           0       -0.356505   -0.600285   -0.000002
      5          6           0        0.801567    0.403119   -0.000001
      6          6           0        2.138943   -0.305942   -0.000002
      7          6           0        3.313454    0.322067    0.000002
      8          8           0        4.547746   -0.245922    0.000001
      9          7           0       -2.775523   -0.771428    0.000001
     10          8           0       -2.752175   -2.021586    0.000001
     11          1           0       -0.293952   -1.268260   -0.870068
     12          1           0       -0.293952   -1.268263    0.870063
     13          1           0        0.707113    1.057714    0.875579
     14          1           0        0.707112    1.057717   -0.875578
     15          1           0        2.124188   -1.395568   -0.000007
     16          1           0        3.396414    1.405497    0.000007
     17          1           0        4.452390   -1.205955   -0.000004
     18          1           0       -3.697465   -0.308874    0.000002
 ---------------------------------------------------------------------

 SCF Done:  E(RB3LYP) =  -493.319422540     A.U. after    1 cycles

 The electronic state is 1-A.
 Alpha  occ. eigenvalues --  -19.17534 -19.15875 -14.50091 -14.34998 -10.27661
 Alpha  occ. eigenvalues --  -10.24094 -10.24046 -10.21984 -10.20545 -10.18156
 Alpha  occ. eigenvalues --   -1.14536  -1.06153  -0.93007  -0.89136  -0.81764
 Alpha  occ. eigenvalues --   -0.75843  -0.69001  -0.65104  -0.62288  -0.59831
 Alpha  occ. eigenvalues --   -0.51984  -0.50325  -0.49954  -0.47373  -0.45929
 Alpha  occ. eigenvalues --   -0.43550  -0.39984  -0.39625  -0.37865  -0.37573
 Alpha  occ. eigenvalues --   -0.36883  -0.36664  -0.36360  -0.35365  -0.28578
 Alpha  occ. eigenvalues --   -0.24822  -0.22719
 Alpha virt. eigenvalues --   -0.07688   0.00015   0.02670   0.05575   0.06795
 Alpha virt. eigenvalues --    0.09073   0.10018   0.11239   0.13381   0.14381
 Alpha virt. eigenvalues --    0.14492   0.17623   0.19876   0.20220   0.23981

 Mulliken charges:
               1
     1  N   -0.337722
     2  C    0.230508
     3  C    0.187206
     4  C   -0.311989
     5  C   -0.249417
     6  C   -0.177420
     7  C    0.098845
     8  O   -0.380038
     9  N    0.036250
    10  O   -0.410071
    11  H    0.144607
    12  H    0.144607
    13  H    0.128252
    14  H    0.128252
    15  H    0.074667
    16  H    0.115867
    17  H    0.298706
    18  H    0.278891
 Sum of Mulliken charges =  -0.00000

 Dipole moment (field-independent basis, Debye):
    X=              0.4706    Y=             -1.7120    Z=             -0.0000  Tot=              1.7755
 Quadrupole moment (field-independent basis, Debye-Ang):
   XX=            -57.7654   YY=            -69.3274   ZZ=            -57.9686
   XY=             -3.6058   XZ=             -0.0000   YZ=              0.0000

  Exact polarizability: 110.928   7.053 107.036  -0.000   0.000  47.410
 Approx polarizability: 148.324  31.487 224.809   0.000   0.000  74.715

 ******    1 imaginary frequencies (negative Signs) ******

                      1                      2                      3
                      A                      A                      A
 Frequencies --   -124.2453                33.2158                69.1572
 Red. masses --      1.8780                 1.9058                 3.5219
 Frc consts  --      0.0171                 0.0012                 0.0099
 IR Inten    --      3.4573                 0.7045                 0.0065

                      4                      5                      6
                      A                      A                      A
 Frequencies --     72.6402               148.8995               205.7854
 Red. masses --      8.1005                 7.8306                 6.3080
 Frc consts  --      0.0252                 0.1023                 0.1574
 IR Inten    --      0.0861                13.0371                 3.7055

                      7                      8                      9
                      A                      A                      A
 Frequencies --    206.7315               269.0266               299.2802
 Red. masses --      6.8013                 2.9880                 7.2345
 Frc consts  --      0.1713                 0.1274                 0.3818
 IR Inten    --     20.0617                 2.2961                 1.7669

                     10                     11                     12
                      A                      A                      A
 Frequencies --    387.5781               438.3152               476.1332
 Red. masses --      3.9419                 2.8198                 1.2369
 Frc consts  --      0.3489                 0.3192                 0.1652
 IR Inten    --     24.2769                18.4057                77.7001

                     13                     14                     15
                      A                      A                      A
 Frequencies --    542.3642               545.4856               600.6708
 Red. masses --      4.5969                 5.7215                11.5215
 Frc consts  --      0.7967                 1.0031                 2.4493
 IR Inten    --      3.4066                 9.2521                 4.7629

                     16                     17                     18
                      A                      A                      A
 Frequencies --    639.9601               738.3616               809.2821
 Red. masses --      5.0843                 1.2509                 1.6194
 Frc consts  --      1.2268                 0.4018                 0.6249
 IR Inten    --      6.4491                 5.2446                12.0695

                     19                     20                     21
                      A                      A                      A
 Frequencies --    817.7257               929.9810               982.9234
 Red. masses --      4.3048                 1.4632                 1.1682
 Frc consts  --      1.6960                 0.7456                 0.6650
 IR Inten    --      7.6452                30.5365                29.7862

                     22                     23                     24
                      A                      A                      A
 Frequencies --   1043.7889              1056.4748              1079.2253
 Red. masses --      1.7263                 2.7188                 3.8535
 Frc consts  --      1.1082                 1.7879                 2.6444
 IR Inten    --      1.3618                25.0030                12.9404

                     25                     26                     27
                      A                      A                      A
 Frequencies --   1147.8664              1189.7304              1224.3583
 Red. masses --      2.4896                 1.1283                 1.4279
 Frc consts  --      1.9327                 0.9410                 1.2611
 IR Inten    --    211.6165                 0.0741                 9.8462

                     28                     29                     30
                      A                      A                      A
 Frequencies --   1279.1970              1302.1468              1305.9225
 Red. masses --      2.7290                 2.1082                 1.1006
 Frc consts  --      2.6311                 2.1061                 1.1059
 IR Inten    --     11.2647                32.5964                 0.7106

                     31                     32                     33
                      A                      A                      A
 Frequencies --   1344.2849              1361.1535              1402.5476
 Red. masses --      1.2765                 2.0018                 1.9579
 Frc consts  --      1.3591                 2.1852                 2.2692
 IR Inten    --     19.6633                28.6499                45.2657

                     34                     35                     36
                      A                      A                      A
 Frequencies --   1417.3420              1470.9078              1485.3591
 Red. masses --      1.7310                 1.1215                 1.6531
 Frc consts  --      2.0488                 1.4296                 2.1489
 IR Inten    --     21.2440                23.9494               132.1598

                     37                     38                     39
                      A                      A                      A
 Frequencies --   1493.9580              1642.8073              1733.0899
 Red. masses --      1.0890                 3.1522                 5.8601
 Frc consts  --      1.4321                 5.0124                10.3704
 IR Inten    --      3.7275               122.2913               170.2215

                     40                     41                     42
                      A                      A                      A
 Frequencies --   2315.8517              3013.7265              3021.8570
 Red. masses --     12.6516                 1.0592                 1.0588
 Frc consts  --     39.9776                 5.6683                 5.6966
 IR Inten    --     34.7572                 2.5039                22.7916

                     43                     44                     45
                      A                      A                      A
 Frequencies --   3032.6326              3055.8647              3124.4415
 Red. masses --      1.0999                 1.1032                 1.0884
 Frc consts  --      5.9600                 6.0700                 6.2600
 IR Inten    --      0.0178                24.0610                21.2956

                     46                     47                     48
                      A                      A                      A
 Frequencies --   3178.5999              3304.8028              3794.2271
 Red. masses --      1.0911                 1.0766                 1.0652
 Frc consts  --      6.4951                 6.9279                 9.0347
 IR Inten    --      9.7436                 8.5238                33.2871

 - Thermochemistry -
 -------------------
 Temperature   298.150 Kelvin.  Pressure   1.00000 Atm.
 Atom     1 has atomic number  7 and mass  14.00307

 Molecular mass:   140.05858 amu.
 Principal axes and moments of inertia in atomic units:
                           1         2         3
     Eigenvalues --   761.002963422.320704161.38911
           X            1.00000  -0.00032  -0.00000
           Y            0.00032   1.00000   0.00000
           Z            0.00000  -0.00000   1.00000
 This molecule is an asymmetric top.
 Rotational symmetry number  1.
 Warning -- assumption of classical behavior for rotation
           may cause significant error
 Rotational temperatures (Kelvin)      0.11382     0.02531     0.02081
 Rotational constants (GHZ):           2.37153     0.52734     0.43369
    1 imaginary frequencies ignored.
 Zero-point vibrational energy     365074.4 (Joules/Mol)
                                   87.25489 (Kcal/Mol)
 Warning -- explicit consideration of  14 degrees of freedom as
           vibrations may cause significant error
 Vibrational temperatures:     47.79    99.50   104.51   214.23   296.08
          (Kelvin)            297.44   387.07   430.60   557.64   630.64
                              685.05   780.34   784.83   864.23   920.76
                             1062.34  1164.38  1176.52  1338.04  1414.21
                             1501.78  1520.03  1552.76  1651.52  1711.76
                             1761.58  1840.48  1873.50  1878.93  1934.13
                             1958.40  2017.95  2039.24  2116.31  2137.10
                             2149.47  2363.63  2493.53  3331.99  4336.08
                             4347.78  4363.28  4396.71  4495.37  4573.30
                             4754.87  5459.05

 Zero-point correction=                           0.139050 (Hartree/Particle)
 Thermal correction to Energy=                    0.149052
 Thermal correction to Enthalpy=                  0.149996
 Thermal correction to Gibbs Free Energy=         0.101919
 Sum of electronic and zero-point Energies=           -493.180373
 Sum of electronic and thermal Energies=              -493.170371
 Sum of electronic and thermal Enthalpies=            -493.169426
 Sum of electronic and thermal Free Energies=         -493.217503

                     E (Thermal)             CV                S
                      KCal/Mol        Cal/Mol-Kelvin    Cal/Mol-Kelvin
 Total                   93.531             35.010            101.186
 Electronic               0.000              0.000              0.000
 Translational            0.889              2.981             40.722
 Rotational               0.889              2.981             30.761
 Vibrational             91.754             29.049             29.702
 Vibration     1          0.594              1.983              5.627
 Vibration     2          0.598              1.969              4.177
 Vibration     3          0.599              1.967              4.081
 Vibration     4          0.618              1.904              2.686
 Vibration     5          0.640              1.832              2.081
 Vibration     6          0.641              1.830              2.072
 Vibration     7          0.673              1.730              1.602
 Vibration     8          0.692              1.675              1.421
 Vibration     9          0.756              1.497              1.009
 Vibration    10          0.798              1.387              0.832
 Vibration    11          0.833              1.303              0.721
 Vibration    12          0.897              1.156              0.560
 Vibration    13          0.901              1.150              0.554
 Vibration    14          0.959              1.030              0.449

 Optimization completed.
    -- Stationary point found.
 Normal termination of Gaussian 16 at Wed May 17 12:48:46 2023.
