 Gaussian 16, Revision A.03,
 Gaussian 16:  ES64L-G16RevA.03 25-Dec-2016

 -----------------------------
 # opt freq b3lyp/6-31g(2df,p)
 -----------------------------

 -------------------
 Title Card Required
 -------------------
 Symbolic Z-matrix:
 Charge =  0 Multiplicity = 2

 SCF Done:  E(UB3LYP) =  -794.511682439     A.U. after   30 cycles
 SCF Done:  E(UB3LYP) =  -794.534903757     A.U. after   19 cycles
 SCF Done:  E(UB3LYP) =  -794.551340360     A.U. after   19 cycles
 SCF Done:  E(UB3LYP) =  -794.554912480     A.U. after   18 cycles
 SCF Done:  E(UB3LYP) =  -794.556691633     A.U. after   17 cycles
 SCF Done:  E(UB3LYP) =  -794.558036507     A.U. after   16 cycles
 SCF Done:  E(UB3LYP) =  -794.558399603     A.U. after   15 cycles
 SCF Done:  E(UB3LYP) =  -794.558510774     A.U. after   15 cycles
 SCF Done:  E(UB3LYP) =  -794.558526349     A.U. after   13 cycles
 SCF Done:  E(UB3LYP) =  -794.558531548     A.U. after   11 cycles
 SCF Done:  E(UB3LYP) =  -794.558532106     A.U. after   10 cycles
 SCF Done:  E(UB3LYP) =  -794.558532323     A.U. after   10 cycles
 SCF Done:  E(UB3LYP) =  -794.558532466     A.U. after   11 cycles
 SCF Done:  E(UB3LYP) =  -794.558532517     A.U. after   10 cycles
 Optimization completed.
    -- Stationary point found.
 Normal termination of Gaussian 16 at Wed May 17 15:43:14 2023.

 ----------------------------------------------------------------------
 #N Geom=AllCheck Guess=TCheck SCRF=Check GenChk UB3LYP/6-31G(2df,p) Fr
 eq
 ----------------------------------------------------------------------

 Structure from the checkpoint file:  "[N]dCCd[SH]c1ncccn1.chk"
 -------------------
 Title Card Required
 -------------------
 Charge =  0 Multiplicity = 2

                         Standard orientation:
 ---------------------------------------------------------------------
 Center     Atomic      Atomic             Coordinates (Angstroms)
 Number     Number       Type             X           Y           Z
 ---------------------------------------------------------------------
      1          7           0        4.170302    1.035123    0.347369
      2          6           0        3.223120    0.362591   -0.152041
      3          6           0        2.122823   -0.253084    0.549713
      4         16           0        0.942088   -0.972827   -0.365621
      5          6           0       -0.759936   -0.267306   -0.134605
      6          7           0       -0.867807    1.040979   -0.299109
      7          6           0       -2.100778    1.533359   -0.147436
      8          6           0       -3.189857    0.719994    0.152286
      9          6           0       -2.937870   -0.640432    0.288302
     10          7           0       -1.708077   -1.149039    0.150618
     11          1           0        3.237884    0.209294   -1.246516
     12          1           0        1.987927   -0.122532    1.614150
     13          1           0        0.526888   -2.131014    0.233800
     14          1           0       -2.213540    2.607078   -0.274194
     15          1           0       -4.185761    1.127275    0.274143
     16          1           0       -3.732750   -1.345039    0.519099
 ---------------------------------------------------------------------

 SCF Done:  E(UB3LYP) =  -794.558532517     A.U. after    1 cycles

 The electronic state is 2-A.
 Alpha  occ. eigenvalues --  -88.96950 -14.37170 -14.36830 -14.29953 -10.29487
 Alpha  occ. eigenvalues --  -10.27065 -10.26925 -10.23397 -10.20064 -10.18779
 Alpha  occ. eigenvalues --   -8.02527  -5.98818  -5.98763  -5.98376  -1.02423
 Alpha  occ. eigenvalues --   -0.92523  -0.87509  -0.85114  -0.80838  -0.69716
 Alpha  occ. eigenvalues --   -0.69010  -0.64712  -0.55423  -0.54939  -0.53908
 Alpha  occ. eigenvalues --   -0.48961  -0.47703  -0.46622  -0.44736  -0.43939
 Alpha  occ. eigenvalues --   -0.42782  -0.35893  -0.34844  -0.33955  -0.32404
 Alpha  occ. eigenvalues --   -0.31832  -0.30330  -0.28520  -0.21910  -0.19703
 Alpha virt. eigenvalues --   -0.07183  -0.06110   0.00560   0.04161   0.06615
 Alpha virt. eigenvalues --    0.07316   0.08318   0.11037   0.12539   0.13654
 Alpha virt. eigenvalues --    0.14335   0.17179   0.17804   0.21569   0.21853

  Beta  occ. eigenvalues --  -88.96948 -14.37168 -14.36828 -14.28108 -10.29514
  Beta  occ. eigenvalues --  -10.27066 -10.26926 -10.23395 -10.20278 -10.18591
  Beta  occ. eigenvalues --   -8.02526  -5.98827  -5.98758  -5.98367  -1.02431
  Beta  occ. eigenvalues --   -0.92523  -0.86607  -0.83146  -0.80377  -0.69482
  Beta  occ. eigenvalues --   -0.68786  -0.64086  -0.55354  -0.54840  -0.52985
  Beta  occ. eigenvalues --   -0.48922  -0.47345  -0.46540  -0.44633  -0.43922
  Beta  occ. eigenvalues --   -0.41301  -0.35768  -0.34836  -0.33706  -0.31259
  Beta  occ. eigenvalues --   -0.30357  -0.30058  -0.28514  -0.18694
  Beta virt. eigenvalues --   -0.07187  -0.06405  -0.04162   0.00806   0.04236
  Beta virt. eigenvalues --    0.06995   0.07785   0.08331   0.11080   0.12545
  Beta virt. eigenvalues --    0.13990   0.14349   0.17361   0.18124   0.21684

 Mulliken charges and spin densities:
               1          2
     1  N   -0.333407   0.989242
     2  C    0.070882  -0.137918
     3  C   -0.202423   0.058616
     4  S    0.038058   0.000484
     5  C    0.258396  -0.009705
     6  N   -0.245831   0.000956
     7  C    0.018501  -0.000698
     8  C   -0.132215   0.001014
     9  C    0.019098  -0.000738
    10  N   -0.267316   0.000838
    11  H    0.101845   0.100818
    12  H    0.114168   0.001049
    13  H    0.153564  -0.003765
    14  H    0.140340  -0.000044
    15  H    0.128856  -0.000029
    16  H    0.137484  -0.000120
 Sum of Mulliken charges =  -0.00000   1.00000

 Dipole moment (field-independent basis, Debye):
    X=             -8.2305    Y=             -1.5116    Z=             -0.4037  Tot=              8.3779
 Quadrupole moment (field-independent basis, Debye-Ang):
   XX=            -75.2010   YY=            -63.7173   ZZ=            -63.1894
   XY=            -11.5636   XZ=             -5.1453   YZ=             -1.0950

  Exact polarizability: 167.954  10.631  94.189   0.475  -0.528  59.859
 Approx polarizability: 243.728  31.962 175.124   6.031   1.160 102.368

                      1                      2                      3
                      A                      A                      A
 Frequencies --     33.5193                57.2718               114.3406
 Red. masses --      5.9027                 9.0406                 3.6804
 Frc consts  --      0.0039                 0.0175                 0.0283
 IR Inten    --      1.0328                 2.5219                 0.9405

                      4                      5                      6
                      A                      A                      A
 Frequencies --    179.9874               207.8719               249.4960
 Red. masses --      5.2478                 2.9778                 5.2114
 Frc consts  --      0.1002                 0.0758                 0.1911
 IR Inten    --      5.5280                 6.1023                 9.8017

                      7                      8                      9
                      A                      A                      A
 Frequencies --    308.9048               376.5439               402.4677
 Red. masses --      4.6931                 7.6927                 4.1174
 Frc consts  --      0.2639                 0.6426                 0.3929
 IR Inten    --      0.5791                 3.2091                 0.2915

                     10                     11                     12
                      A                      A                      A
 Frequencies --    469.4218               485.6249               631.3933
 Red. masses --      9.1671                 3.3728                 7.5325
 Frc consts  --      1.1902                 0.4686                 1.7692
 IR Inten    --     53.4713                 6.5227                15.2368

                     13                     14                     15
                      A                      A                      A
 Frequencies --    642.0821               724.9404               766.6967
 Red. masses --      1.3297                 2.3974                 1.8967
 Frc consts  --      0.3230                 0.7423                 0.6569
 IR Inten    --     56.9777                 1.1390                 2.4505

                     16                     17                     18
                      A                      A                      A
 Frequencies --    805.2003               833.5436               882.8336
 Red. masses --      4.6023                 1.2706                 1.5529
 Frc consts  --      1.7581                 0.5201                 0.7131
 IR Inten    --     15.9045                12.6960                 7.9819

                     19                     20                     21
                      A                      A                      A
 Frequencies --    952.9019              1005.4611              1012.2775
 Red. masses --      4.0320                 9.4433                 1.3907
 Frc consts  --      2.1571                 5.6248                 0.8396
 IR Inten    --      9.8303                 6.5766                 0.0513

                     22                     23                     24
                      A                      A                      A
 Frequencies --   1015.1334              1066.6471              1086.2849
 Red. masses --      1.4327                 1.3375                 2.8229
 Frc consts  --      0.8699                 0.8966                 1.9626
 IR Inten    --      1.0348               150.9343                 1.0709

                     25                     26                     27
                      A                      A                      A
 Frequencies --   1124.6271              1147.6325              1190.6127
 Red. masses --      1.4156                 1.7430                 3.8703
 Frc consts  --      1.0549                 1.3525                 3.2325
 IR Inten    --     41.0536                47.4700                22.1360

                     28                     29                     30
                      A                      A                      A
 Frequencies --   1215.8248              1241.1248              1304.7041
 Red. masses --      1.2941                 6.1827                 1.5565
 Frc consts  --      1.1271                 5.6113                 1.5610
 IR Inten    --     18.2166                 1.4736                 2.8961

                     31                     32                     33
                      A                      A                      A
 Frequencies --   1313.8979              1422.3729              1465.2084
 Red. masses --      1.6070                 2.1768                 2.0298
 Frc consts  --      1.6345                 2.5947                 2.5675
 IR Inten    --      2.5521               158.7514                13.8415

                     34                     35                     36
                      A                      A                      A
 Frequencies --   1597.3829              1603.8690              1650.9412
 Red. masses --      4.9156                 6.3505                 9.6028
 Frc consts  --      7.3900                 9.6249                15.4210
 IR Inten    --    103.0689                77.6442               134.3607

                     37                     38                     39
                      A                      A                      A
 Frequencies --   2433.2454              2938.5957              3166.7024
 Red. masses --      1.0382                 1.0772                 1.0896
 Frc consts  --      3.6215                 5.4808                 6.4378
 IR Inten    --     57.3662                21.6752                16.8134

                     40                     41                     42
                      A                      A                      A
 Frequencies --   3169.4570              3217.1726              3221.8118
 Red. masses --      1.0917                 1.0957                 1.0880
 Frc consts  --      6.4612                 6.6815                 6.6540
 IR Inten    --     14.3058                 5.6924                 0.4070

 - Thermochemistry -
 -------------------
 Temperature   298.150 Kelvin.  Pressure   1.00000 Atm.
 Atom     1 has atomic number  7 and mass  14.00307

 Molecular mass:   152.02824 amu.
 Principal axes and moments of inertia in atomic units:
                           1         2         3
     Eigenvalues --   549.449803059.795153482.06393
           X            0.99995  -0.00884  -0.00377
           Y            0.00877   0.99982  -0.01698
           Z            0.00392   0.01695   0.99985
 This molecule is an asymmetric top.
 Rotational symmetry number  1.
 Warning -- assumption of classical behavior for rotation
           may cause significant error
 Rotational temperatures (Kelvin)      0.15764     0.02831     0.02487
 Rotational constants (GHZ):           3.28463     0.58982     0.51830
 Zero-point vibrational energy     291506.2 (Joules/Mol)
                                   69.67165 (Kcal/Mol)
 Warning -- explicit consideration of  11 degrees of freedom as
           vibrations may cause significant error
 Vibrational temperatures:     48.23    82.40   164.51   258.96   299.08
          (Kelvin)            358.97   444.45   541.76   579.06   675.39
                              698.71   908.43   923.81  1043.03  1103.11
                             1158.50  1199.28  1270.20  1371.01  1446.63
                             1456.44  1460.55  1534.67  1562.92  1618.09
                             1651.19  1713.03  1749.30  1785.70  1877.18
                             1890.41  2046.48  2108.11  2298.28  2307.61
                             2375.34  3500.90  4227.98  4556.18  4560.14
                             4628.79  4635.47

 Zero-point correction=                           0.111029 (Hartree/Particle)
 Thermal correction to Energy=                    0.120434
 Thermal correction to Enthalpy=                  0.121379
 Thermal correction to Gibbs Free Energy=         0.074123
 Sum of electronic and zero-point Energies=           -794.447504
 Sum of electronic and thermal Energies=              -794.438098
 Sum of electronic and thermal Enthalpies=            -794.437154
 Sum of electronic and thermal Free Energies=         -794.484409

                     E (Thermal)             CV                S
                      KCal/Mol        Cal/Mol-Kelvin    Cal/Mol-Kelvin
 Total                   75.574             33.557             99.457
 Electronic               0.000              0.000              1.377
 Translational            0.889              2.981             40.967
 Rotational               0.889              2.981             30.149
 Vibrational             73.796             27.596             26.964
 Vibration     1          0.594              1.983              5.609
 Vibration     2          0.596              1.975              4.549
 Vibration     3          0.607              1.938              3.194
 Vibration     4          0.629              1.867              2.329
 Vibration     5          0.641              1.829              2.062
 Vibration     6          0.662              1.764              1.734
 Vibration     7          0.698              1.657              1.368
 Vibration     8          0.747              1.520              1.053
 Vibration     9          0.768              1.465              0.954
 Vibration    10          0.827              1.318              0.739
 Vibration    11          0.842              1.282              0.695

 Optimization completed.
    -- Stationary point found.
 Normal termination of Gaussian 16 at Wed May 17 16:37:54 2023.
