 Gaussian 16, Revision A.03,
 Gaussian 16:  ES64L-G16RevA.03 25-Dec-2016

 -----------------------------
 # opt freq b3lyp/6-31g(2df,p)
 -----------------------------

 -------------------
 Title Card Required
 -------------------
 Symbolic Z-matrix:
 Charge =  0 Multiplicity = 1

 SCF Done:  E(RB3LYP) =  -371.324589338     A.U. after   25 cycles
 SCF Done:  E(RB3LYP) =  -371.373961677     A.U. after   15 cycles
 SCF Done:  E(RB3LYP) =  -371.390714632     A.U. after   16 cycles
 SCF Done:  E(RB3LYP) =  -371.395157959     A.U. after   15 cycles
 SCF Done:  E(RB3LYP) =  -371.405403723     A.U. after   16 cycles
 SCF Done:  E(RB3LYP) =  -371.418508207     A.U. after   19 cycles
 SCF Done:  E(RB3LYP) =  -371.420263847     A.U. after   13 cycles
 SCF Done:  E(RB3LYP) =  -371.422791123     A.U. after   14 cycles
 SCF Done:  E(RB3LYP) =  -371.447359948     A.U. after   17 cycles
 SCF Done:  E(RB3LYP) =  -371.458527617     A.U. after   18 cycles
 SCF Done:  E(RB3LYP) =  -371.587580716     A.U. after   13 cycles
 SCF Done:  E(RB3LYP) =  -371.587746240     A.U. after   12 cycles
 SCF Done:  E(RB3LYP) =  -371.587883264     A.U. after   12 cycles
 SCF Done:  E(RB3LYP) =  -371.587928505     A.U. after   11 cycles
 SCF Done:  E(RB3LYP) =  -371.588092973     A.U. after   12 cycles
 SCF Done:  E(RB3LYP) =  -371.588436632     A.U. after   14 cycles
 SCF Done:  E(RB3LYP) =  -371.588505241     A.U. after   13 cycles
 SCF Done:  E(RB3LYP) =  -371.588526812     A.U. after    9 cycles
 SCF Done:  E(RB3LYP) =  -371.588530681     A.U. after   10 cycles
 Optimization completed.
    -- Stationary point found.
 Normal termination of Gaussian 16 at Wed May 17 03:34:41 2023.

 ----------------------------------------------------------------------
 #N Geom=AllCheck Guess=TCheck SCRF=Check GenChk RB3LYP/6-31G(2df,p) Fr
 eq
 ----------------------------------------------------------------------

 Structure from the checkpoint file:  "[N]N1[N]C1dCN[O].chk"
 -------------------
 Title Card Required
 -------------------
 Charge =  0 Multiplicity = 1

                         Standard orientation:
 ---------------------------------------------------------------------
 Center     Atomic      Atomic             Coordinates (Angstroms)
 Number     Number       Type             X           Y           Z
 ---------------------------------------------------------------------
      1          7           0       -3.474341   -0.133218   -0.002231
      2          7           0       -2.390345    0.040572    0.002862
      3          7           0        0.965838   -2.435891   -0.000756
      4          6           0        1.301859   -1.324809   -0.000126
      5          6           0        1.709625    0.023272    0.000906
      6          7           0        0.801752    0.980068    0.001000
      7          8           0        1.005516    2.207594   -0.001382
      8          1           0        2.748934    0.320249   -0.001368
      9          1           0       -0.182303    0.667500    0.001620
 ---------------------------------------------------------------------

 SCF Done:  E(RB3LYP) =  -371.588530681     A.U. after    1 cycles

 The electronic state is 1-A.
 Alpha  occ. eigenvalues --  -19.16706 -14.51237 -14.46555 -14.46384 -14.35183
 Alpha  occ. eigenvalues --  -10.27501 -10.24391  -1.15545  -1.14859  -0.92998
 Alpha  occ. eigenvalues --   -0.89225  -0.71548  -0.63699  -0.57962  -0.52660
 Alpha  occ. eigenvalues --   -0.49266  -0.48824  -0.48823  -0.48500  -0.45482
 Alpha  occ. eigenvalues --   -0.37948  -0.37764  -0.35722  -0.29162  -0.25888
 Alpha virt. eigenvalues --   -0.08433  -0.04656  -0.04604  -0.00222   0.07961
 Alpha virt. eigenvalues --    0.09148   0.11974   0.19630   0.22098   0.29357
 Alpha virt. eigenvalues --    0.31346   0.39993   0.43777   0.45714   0.46879

 Mulliken charges:
               1
     1  N    0.015916
     2  N    0.009887
     3  N   -0.321438
     4  C    0.242088
     5  C   -0.149239
     6  N    0.120813
     7  O   -0.405020
     8  H    0.172197
     9  H    0.314797
 Sum of Mulliken charges =  -0.00000

 Dipole moment (field-independent basis, Debye):
    X=             -0.5681    Y=              0.9017    Z=              0.0038  Tot=              1.0658
 Quadrupole moment (field-independent basis, Debye-Ang):
   XX=            -33.1121   YY=            -53.4466   ZZ=            -37.6459
   XY=             -0.5870   XZ=             -0.0083   YZ=              0.0018

  Exact polarizability:  47.831  -1.136  78.930   0.023  -0.009  26.077
 Approx polarizability:  74.224  -6.107 180.074   0.081  -0.049  38.960

 ******    1 imaginary frequencies (negative Signs) ******

                      1                      2                      3
                      A                      A                      A
 Frequencies --     -6.2967                46.2329                77.4946
 Red. masses --     12.0926                 4.3461                12.9367
 Frc consts  --      0.0003                 0.0055                 0.0458
 IR Inten    --      0.1999                 0.0400                 0.3534

                      4                      5                      6
                      A                      A                      A
 Frequencies --     83.4299                99.8084               192.4235
 Red. masses --     13.4617                 4.6329                 8.3384
 Frc consts  --      0.0552                 0.0272                 0.1819
 IR Inten    --      0.7783                 1.3279                22.3820

                      7                      8                      9
                      A                      A                      A
 Frequencies --    231.6372               501.6023               528.6054
 Red. masses --      3.9435                 5.8014                 9.1636
 Frc consts  --      0.1247                 0.8600                 1.5086
 IR Inten    --     19.5639                17.4530                 0.7668

                     10                     11                     12
                      A                      A                      A
 Frequencies --    597.6764               807.0004              1024.7535
 Red. masses --     11.8875                 1.5398                 1.2752
 Frc consts  --      2.5019                 0.5908                 0.7890
 IR Inten    --      4.9480                29.7360                46.4055

                     13                     14                     15
                      A                      A                      A
 Frequencies --   1061.7674              1313.5563              1379.7336
 Red. masses --      2.7890                 1.7842                 4.9771
 Frc consts  --      1.8525                 1.8138                 5.5824
 IR Inten    --      2.5606                 1.6101                33.5643

                     16                     17                     18
                      A                      A                      A
 Frequencies --   1481.0369              1673.1402              2322.9679
 Red. masses --      1.5249                 2.8895                12.5563
 Frc consts  --      1.9707                 4.7658                39.9208
 IR Inten    --    257.2691               141.8871                34.2314

                     19                     20                     21
                      A                      A                      A
 Frequencies --   2441.8265              3241.0640              3318.1433
 Red. masses --     13.9998                 1.0902                 1.0770
 Frc consts  --     49.1816                 6.7473                 6.9864
 IR Inten    --      1.3716                 4.5947                84.9473

 - Thermochemistry -
 -------------------
 Temperature   298.150 Kelvin.  Pressure   1.00000 Atm.
 Atom     1 has atomic number  7 and mass  14.00307

 Molecular mass:    98.02286 amu.
 Principal axes and moments of inertia in atomic units:
                           1         2         3
     Eigenvalues --   701.240341250.858211952.09675
           X            0.99999   0.00516  -0.00001
           Y           -0.00516   0.99999   0.00000
           Z            0.00001  -0.00000   1.00000
 This molecule is an asymmetric top.
 Rotational symmetry number  1.
 Warning -- assumption of classical behavior for rotation
           may cause significant error
 Rotational temperatures (Kelvin)      0.12352     0.06924     0.04437
 Rotational constants (GHZ):           2.57364     1.44280     0.92451
    1 imaginary frequencies ignored.
 Zero-point vibrational energy     134124.7 (Joules/Mol)
                                   32.05658 (Kcal/Mol)
 Warning -- explicit consideration of   9 degrees of freedom as
           vibrations may cause significant error
 Vibrational temperatures:     66.52   111.50   120.04   143.60   276.85
          (Kelvin)            333.27   721.69   760.55   859.92  1161.09
                             1474.39  1527.65  1889.91  1985.13  2130.88
                             2407.28  3342.23  3513.24  4663.17  4774.07

 Zero-point correction=                           0.051085 (Hartree/Particle)
 Thermal correction to Energy=                    0.058880
 Thermal correction to Enthalpy=                  0.059824
 Thermal correction to Gibbs Free Energy=         0.016601
 Sum of electronic and zero-point Energies=           -371.537445
 Sum of electronic and thermal Energies=              -371.529651
 Sum of electronic and thermal Enthalpies=            -371.528706
 Sum of electronic and thermal Free Energies=         -371.571930

                     E (Thermal)             CV                S
                      KCal/Mol        Cal/Mol-Kelvin    Cal/Mol-Kelvin
 Total                   36.948             22.613             90.971
 Electronic               0.000              0.000              0.000
 Translational            0.889              2.981             39.658
 Rotational               0.889              2.981             28.928
 Vibrational             35.170             16.651             22.384
 Vibration     1          0.595              1.979              4.972
 Vibration     2          0.599              1.964              3.953
 Vibration     3          0.600              1.961              3.809
 Vibration     4          0.604              1.949              3.458
 Vibration     5          0.634              1.850              2.204
 Vibration     6          0.653              1.793              1.866
 Vibration     7          0.857              1.246              0.654
 Vibration     8          0.884              1.187              0.590
 Vibration     9          0.956              1.037              0.454

                           ! Non-Optimized Parameters !
 Normal termination of Gaussian 16 at Wed May 17 06:05:44 2023.
