 Gaussian 16, Revision A.03,
 Gaussian 16:  ES64L-G16RevA.03 25-Dec-2016

 -----------------------------
 # opt freq b3lyp/6-31g(2df,p)
 -----------------------------

 -------------------
 Title Card Required
 -------------------
 Symbolic Z-matrix:
 Charge =  0 Multiplicity = 1

 SCF Done:  E(RB3LYP) =  -776.075900730     A.U. after   39 cycles
 SCF Done:  E(RB3LYP) =  -776.203515131     A.U. after   37 cycles
 SCF Done:  E(RB3LYP) =  -776.404973034     A.U. after   29 cycles
 SCF Done:  E(RB3LYP) =  -776.527329049     A.U. after   21 cycles
 SCF Done:  E(RB3LYP) =  -776.681305963     A.U. after   18 cycles
 SCF Done:  E(RB3LYP) =  -776.894453054     A.U. after   15 cycles
 SCF Done:  E(RB3LYP) =  -776.996342408     A.U. after   15 cycles
 SCF Done:  E(RB3LYP) =  -777.074992224     A.U. after   16 cycles
 SCF Done:  E(RB3LYP) =  -777.109498453     A.U. after   15 cycles
 SCF Done:  E(RB3LYP) =  -777.135327821     A.U. after   14 cycles
 SCF Done:  E(RB3LYP) =  -777.166225700     A.U. after   13 cycles
 SCF Done:  E(RB3LYP) =  -777.166628320     A.U. after   12 cycles
 SCF Done:  E(RB3LYP) =  -777.166689697     A.U. after   12 cycles
 SCF Done:  E(RB3LYP) =  -777.166695610     A.U. after   11 cycles
 SCF Done:  E(RB3LYP) =  -777.166720884     A.U. after    9 cycles
 SCF Done:  E(RB3LYP) =  -777.166725896     A.U. after   10 cycles
 SCF Done:  E(RB3LYP) =  -777.166729164     A.U. after    9 cycles
 SCF Done:  E(RB3LYP) =  -777.166730165     A.U. after    8 cycles
 SCF Done:  E(RB3LYP) =  -777.166730360     A.U. after    8 cycles
 Optimization completed.
    -- Stationary point found.
 Normal termination of Gaussian 16 at Wed May 17 12:58:22 2023.

 ----------------------------------------------------------------------
 #N Geom=AllCheck Guess=TCheck SCRF=Check GenChk RB3LYP/6-31G(2df,p) Fr
 eq
 ----------------------------------------------------------------------

 Structure from the checkpoint file:  "[O][N]C1dCNdCCdCOc2ccncc2CdC1.chk"
 -------------------
 Title Card Required
 -------------------
 Charge =  0 Multiplicity = 1

                         Standard orientation:
 ---------------------------------------------------------------------
 Center     Atomic      Atomic             Coordinates (Angstroms)
 Number     Number       Type             X           Y           Z
 ---------------------------------------------------------------------
      1          8           0        4.384234    1.287412    0.141784
      2          7           0        3.266274    0.972742   -0.274474
      3          6           0        1.980390    1.036516   -0.123065
      4          6           0        2.520086   -0.057618   -1.030064
      5          7           0        2.415962   -1.316165   -0.368972
      6          6           0        1.394085   -1.985220   -0.753908
      7          6           0        0.488245   -2.495507    0.266836
      8          6           0       -0.768675   -2.121786   -0.013391
      9          8           0       -1.694739   -1.679459    0.897490
     10          6           0       -2.143361   -0.437718    0.429478
     11          6           0       -3.394159   -0.377205   -0.165762
     12          6           0       -3.786574    0.816624   -0.764089
     13          7           0       -3.009132    1.899116   -0.815019
     14          6           0       -1.825070    1.829610   -0.206973
     15          6           0       -1.316663    0.702546    0.462098
     16          6           0       -0.119107    0.883255    1.320105
     17          6           0        1.167344    1.190802    1.059025
     18          1           0        2.463648    0.013369   -2.120013
     19          1           0        0.956909   -1.858721   -1.757948
     20          1           0        0.851583   -2.584398    1.283212
     21          1           0       -1.070808   -1.954293   -1.045450
     22          1           0       -4.024312   -1.258431   -0.184957
     23          1           0       -4.759684    0.894369   -1.241901
     24          1           0       -1.221429    2.733612   -0.219359
     25          1           0       -0.374490    0.879567    2.379638
     26          1           0        1.771648    1.475655    1.920100
 ---------------------------------------------------------------------

 SCF Done:  E(RB3LYP) =  -777.166730360     A.U. after    1 cycles

 The electronic state is 1-A.
 Alpha  occ. eigenvalues --  -19.20871 -19.14784 -14.47389 -14.34175 -14.33239
 Alpha  occ. eigenvalues --  -10.28106 -10.27972 -10.27391 -10.25685 -10.24028
 Alpha  occ. eigenvalues --  -10.23928 -10.23837 -10.22934 -10.22396 -10.21986
 Alpha  occ. eigenvalues --  -10.21498 -10.21483  -1.13158  -1.10738  -0.98155
 Alpha  occ. eigenvalues --   -0.95934  -0.92240  -0.83997  -0.82020  -0.79472
 Alpha  occ. eigenvalues --   -0.77077  -0.69560  -0.66856  -0.64436  -0.63637
 Alpha  occ. eigenvalues --   -0.60103  -0.59050  -0.56238  -0.54029  -0.52661
 Alpha  occ. eigenvalues --   -0.52280  -0.51981  -0.50322  -0.48014  -0.47267
 Alpha  occ. eigenvalues --   -0.46927  -0.45750  -0.44082  -0.43176  -0.42332
 Alpha  occ. eigenvalues --   -0.42145  -0.40748  -0.39846  -0.38589  -0.35411
 Alpha  occ. eigenvalues --   -0.32646  -0.32156  -0.29711  -0.28242  -0.27948
 Alpha  occ. eigenvalues --   -0.27322  -0.25048  -0.23979  -0.21790
 Alpha virt. eigenvalues --   -0.07132  -0.05000  -0.03598  -0.03037  -0.00385
 Alpha virt. eigenvalues --    0.02388   0.07933   0.08724   0.08947   0.10920
 Alpha virt. eigenvalues --    0.11741   0.12573   0.13628   0.14003   0.14902

 Mulliken charges:
               1
     1  O   -0.452668
     2  N    0.417065
     3  C    0.033621
     4  C   -0.129480
     5  N   -0.169648
     6  C    0.003843
     7  C   -0.175157
     8  C    0.074167
     9  O   -0.251886
    10  C    0.245628
    11  C   -0.200276
    12  C    0.007302
    13  N   -0.268160
    14  C   -0.024009
    15  C    0.086028
    16  C   -0.165732
    17  C   -0.125369
    18  H    0.115458
    19  H    0.091409
    20  H    0.137333
    21  H    0.116730
    22  H    0.122209
    23  H    0.123100
    24  H    0.128161
    25  H    0.129095
    26  H    0.131236
 Sum of Mulliken charges =  -0.00000

 Dipole moment (field-independent basis, Debye):
    X=             -4.2028    Y=             -1.9744    Z=             -0.8131  Tot=              4.7141
 Quadrupole moment (field-independent basis, Debye-Ang):
   XX=           -113.0229   YY=            -99.2553   ZZ=            -90.1322
   XY=              2.0359   XZ=             -2.3523   YZ=              4.9514

  Exact polarizability: 243.491  12.747 136.258   7.455  -1.204 107.637
 Approx polarizability: 462.736  42.266 236.258   9.966 -12.336 186.542

                      1                      2                      3
                      A                      A                      A
 Frequencies --     49.8870                84.7578                96.6482
 Red. masses --      6.5434                 7.1941                 5.0098
 Frc consts  --      0.0096                 0.0304                 0.0276
 IR Inten    --      0.6274                 1.6457                 0.9194

                      4                      5                      6
                      A                      A                      A
 Frequencies --    132.6317               153.9072               168.2362
 Red. masses --      6.4297                 6.9017                 5.3635
 Frc consts  --      0.0666                 0.0963                 0.0894
 IR Inten    --      8.2553                 1.9490                 0.7265

                      7                      8                      9
                      A                      A                      A
 Frequencies --    198.7959               227.2509               251.2923
 Red. masses --      5.3965                 3.3371                 4.8094
 Frc consts  --      0.1257                 0.1015                 0.1789
 IR Inten    --      1.1048                 2.1781                 3.2726

                     10                     11                     12
                      A                      A                      A
 Frequencies --    273.9840               330.2276               365.9717
 Red. masses --      3.0739                 4.2097                 5.5637
 Frc consts  --      0.1360                 0.2705                 0.4390
 IR Inten    --     12.6713                 9.6551                 2.7417

                     13                     14                     15
                      A                      A                      A
 Frequencies --    390.0447               422.4534               472.9722
 Red. masses --      3.7688                 4.2326                 3.9712
 Frc consts  --      0.3378                 0.4451                 0.5234
 IR Inten    --     10.5167                 5.3541                 3.5870

                     16                     17                     18
                      A                      A                      A
 Frequencies --    487.9426               507.0025               537.0056
 Red. masses --      6.4152                 4.9337                 4.2908
 Frc consts  --      0.8999                 0.7472                 0.7290
 IR Inten    --      2.4634                73.0227                 8.0405

                     19                     20                     21
                      A                      A                      A
 Frequencies --    565.1278               606.7826               620.9361
 Red. masses --      4.7056                 5.9648                 5.3251
 Frc consts  --      0.8854                 1.2939                 1.2097
 IR Inten    --      9.1653                 7.4492                 9.5562

                     22                     23                     24
                      A                      A                      A
 Frequencies --    635.3763               657.9434               701.6299
 Red. masses --      3.9849                 6.0824                 5.2301
 Frc consts  --      0.9478                 1.5513                 1.5170
 IR Inten    --      5.8458                 6.9941                 6.1205

                     25                     26                     27
                      A                      A                      A
 Frequencies --    736.3397               769.7081               793.4026
 Red. masses --      4.7856                 2.5551                 3.3196
 Frc consts  --      1.5288                 0.8919                 1.2312
 IR Inten    --     10.8528                19.8852                 3.4634

                     28                     29                     30
                      A                      A                      A
 Frequencies --    818.8976               862.6058               871.0362
 Red. masses --      4.1352                 3.1921                 1.5991
 Frc consts  --      1.6338                 1.3994                 0.7148
 IR Inten    --     29.1391                26.7197                17.5642

                     31                     32                     33
                      A                      A                      A
 Frequencies --    889.4785               952.2407               971.3731
 Red. masses --      2.0891                 2.2588                 1.5406
 Frc consts  --      0.9738                 1.2068                 0.8565
 IR Inten    --     51.6399                 1.3419                 2.0124

                     34                     35                     36
                      A                      A                      A
 Frequencies --    977.5967               985.8812               997.7363
 Red. masses --      1.6088                 1.4149                 1.4823
 Frc consts  --      0.9059                 0.8103                 0.8694
 IR Inten    --     11.7403                 0.6269                 0.5354

                     37                     38                     39
                      A                      A                      A
 Frequencies --   1010.0976              1026.2726              1035.1144
 Red. masses --      1.6215                 1.3073                 3.0154
 Frc consts  --      0.9747                 0.8112                 1.9036
 IR Inten    --     46.8550                59.6138                27.3858

                     40                     41                     42
                      A                      A                      A
 Frequencies --   1066.3163              1114.2469              1134.2603
 Red. masses --      2.1095                 4.4388                 7.1000
 Frc consts  --      1.4132                 3.2469                 5.3819
 IR Inten    --      3.0153                 4.7133               140.7580

                     43                     44                     45
                      A                      A                      A
 Frequencies --   1157.7275              1163.9165              1197.6835
 Red. masses --      3.1897                 3.3050                 2.4889
 Frc consts  --      2.5189                 2.6379                 2.1035
 IR Inten    --     44.7197                14.8098                15.0470

                     46                     47                     48
                      A                      A                      A
 Frequencies --   1236.7225              1250.4310              1269.1952
 Red. masses --      1.8942                 1.6337                 7.6531
 Frc consts  --      1.7069                 1.5050                 7.2635
 IR Inten    --     15.1996                 2.4641                 6.4273

                     49                     50                     51
                      A                      A                      A
 Frequencies --   1282.0049              1290.3822              1319.8283
 Red. masses --      1.7121                 1.2543                 1.8564
 Frc consts  --      1.6579                 1.2305                 1.9052
 IR Inten    --     63.2301                34.4070                55.2147

                     52                     53                     54
                      A                      A                      A
 Frequencies --   1343.2621              1379.3385              1423.1859
 Red. masses --      1.7147                 1.4428                 1.5245
 Frc consts  --      1.8229                 1.6173                 1.8193
 IR Inten    --     46.9059                23.6487                 1.7720

                     55                     56                     57
                      A                      A                      A
 Frequencies --   1427.7441              1434.6645              1497.4090
 Red. masses --      1.4068                 1.8392                 2.5643
 Frc consts  --      1.6896                 2.2304                 3.3877
 IR Inten    --     12.9062                19.3493                61.7011

                     58                     59                     60
                      A                      A                      A
 Frequencies --   1577.2890              1611.8533              1649.4260
 Red. masses --      4.9290                 7.4701                 6.1039
 Frc consts  --      7.2249                11.4348                 9.7842
 IR Inten    --     40.9328               101.5593               104.0688

                     61                     62                     63
                      A                      A                      A
 Frequencies --   1661.2374              1664.2029              1791.4366
 Red. masses --      7.8250                 5.8613                12.8395
 Frc consts  --     12.7232                 9.5644                24.2774
 IR Inten    --     11.6224                31.8919               616.3950

                     64                     65                     66
                      A                      A                      A
 Frequencies --   2969.9680              3059.9350              3115.9987
 Red. masses --      1.0843                 1.0868                 1.0816
 Frc consts  --      5.6350                 5.9952                 6.1874
 IR Inten    --     46.0135                54.8009                 1.3141

                     67                     68                     69
                      A                      A                      A
 Frequencies --   3135.7625              3140.8820              3162.8157
 Red. masses --      1.0902                 1.0881                 1.0877
 Frc consts  --      6.3160                 6.3243                 6.4105
 IR Inten    --      6.3879                10.6593                18.6779

                     70                     71                     72
                      A                      A                      A
 Frequencies --   3165.6308              3207.5563              3217.0596
 Red. masses --      1.0915                 1.0936                 1.0926
 Frc consts  --      6.4447                 6.6294                 6.6621
 IR Inten    --      6.8752                 3.1308                 1.4905

 - Thermochemistry -
 -------------------
 Temperature   298.150 Kelvin.  Pressure   1.00000 Atm.
 Atom     1 has atomic number  8 and mass  15.99491

 Molecular mass:   227.06948 amu.
 Principal axes and moments of inertia in atomic units:
                           1         2         3
     Eigenvalues --  2051.750125277.247446511.82839
           X            0.99999  -0.00228   0.00375
           Y            0.00222   0.99988   0.01553
           Z           -0.00379  -0.01552   0.99987
 This molecule is an asymmetric top.
 Rotational symmetry number  1.
 Warning -- assumption of classical behavior for rotation
           may cause significant error
 Rotational temperatures (Kelvin)      0.04221     0.01641     0.01330
 Rotational constants (GHZ):           0.87961     0.34199     0.27715
 Zero-point vibrational energy     500971.9 (Joules/Mol)
                                  119.73516 (Kcal/Mol)
 Warning -- explicit consideration of  20 degrees of freedom as
           vibrations may cause significant error
 Vibrational temperatures:     71.78   121.95   139.06   190.83   221.44
          (Kelvin)            242.05   286.02   326.96   361.55   394.20
                              475.12   526.55   561.19   607.82   680.50
                              702.04   729.46   772.63   813.09   873.02
                              893.39   914.16   946.63  1009.49  1059.43
                             1107.44  1141.53  1178.21  1241.10  1253.23
                             1279.76  1370.06  1397.59  1406.54  1418.46
                             1435.52  1453.31  1476.58  1489.30  1534.19
                             1603.15  1631.95  1665.71  1674.62  1723.20
                             1779.37  1799.09  1826.09  1844.52  1856.57
                             1898.94  1932.65  1984.56  2047.65  2054.21
                             2064.16  2154.44  2269.37  2319.10  2373.16
                             2390.15  2394.42  2577.48  4273.12  4402.56
                             4483.23  4511.66  4519.03  4550.59  4554.64
                             4614.96  4628.63

 Zero-point correction=                           0.190810 (Hartree/Particle)
 Thermal correction to Energy=                    0.204109
 Thermal correction to Enthalpy=                  0.205054
 Thermal correction to Gibbs Free Energy=         0.150743
 Sum of electronic and zero-point Energies=           -776.975920
 Sum of electronic and thermal Energies=              -776.962621
 Sum of electronic and thermal Enthalpies=            -776.961677
 Sum of electronic and thermal Free Energies=         -777.015987

                     E (Thermal)             CV                S
                      KCal/Mol        Cal/Mol-Kelvin    Cal/Mol-Kelvin
 Total                  128.081             52.305            114.306
 Electronic               0.000              0.000              0.000
 Translational            0.889              2.981             42.163
 Rotational               0.889              2.981             32.622
 Vibrational            126.303             46.343             39.521
 Vibration     1          0.595              1.978              4.822
 Vibration     2          0.601              1.960              3.778
 Vibration     3          0.603              1.952              3.521
 Vibration     4          0.613              1.921              2.908
 Vibration     5          0.619              1.898              2.623
 Vibration     6          0.625              1.882              2.455
 Vibration     7          0.637              1.842              2.144
 Vibration     8          0.651              1.799              1.901
 Vibration     9          0.663              1.761              1.721
 Vibration    10          0.676              1.721              1.571
 Vibration    11          0.713              1.615              1.259
 Vibration    12          0.739              1.542              1.097
 Vibration    13          0.758              1.491              1.000
 Vibration    14          0.785              1.421              0.884
 Vibration    15          0.830              1.310              0.729
 Vibration    16          0.844              1.277              0.689
 Vibration    17          0.862              1.234              0.641
 Vibration    18          0.892              1.168              0.572
 Vibration    19          0.921              1.107              0.514
 Vibration    20          0.965              1.017              0.438

                           ! Non-Optimized Parameters !
 Normal termination of Gaussian 16 at Wed May 17 15:31:56 2023.
