 Gaussian 16, Revision A.03,
 Gaussian 16:  ES64L-G16RevA.03 25-Dec-2016

 -----------------------------
 # opt freq b3lyp/6-31g(2df,p)
 -----------------------------

 -------------------
 Title Card Required
 -------------------
 Symbolic Z-matrix:
 Charge =  0 Multiplicity = 2

 SCF Done:  E(UB3LYP) =  -1230.83079025     A.U. after   31 cycles
 SCF Done:  E(UB3LYP) =  -1230.85328493     A.U. after   20 cycles
 SCF Done:  E(UB3LYP) =  -1230.86046193     A.U. after   21 cycles
 SCF Done:  E(UB3LYP) =  -1230.86229438     A.U. after   22 cycles
 SCF Done:  E(UB3LYP) =  -1230.86746303     A.U. after   20 cycles
 SCF Done:  E(UB3LYP) =  -1230.87142190     A.U. after   20 cycles
 SCF Done:  E(UB3LYP) =  -1230.87534524     A.U. after   21 cycles
 SCF Done:  E(UB3LYP) =  -1230.87750276     A.U. after   20 cycles
 SCF Done:  E(UB3LYP) =  -1230.87972418     A.U. after   19 cycles
 SCF Done:  E(UB3LYP) =  -1230.88017769     A.U. after   18 cycles
 SCF Done:  E(UB3LYP) =  -1230.88040296     A.U. after   12 cycles
 SCF Done:  E(UB3LYP) =  -1230.88040620     A.U. after   12 cycles
 SCF Done:  E(UB3LYP) =  -1230.88041064     A.U. after   12 cycles
 SCF Done:  E(UB3LYP) =  -1230.88041487     A.U. after   14 cycles
 SCF Done:  E(UB3LYP) =  -1230.88041667     A.U. after   13 cycles
 SCF Done:  E(UB3LYP) =  -1230.88041702     A.U. after   12 cycles
 SCF Done:  E(UB3LYP) =  -1230.88041714     A.U. after   10 cycles
 SCF Done:  E(UB3LYP) =  -1230.88041724     A.U. after   10 cycles
 SCF Done:  E(UB3LYP) =  -1230.88041727     A.U. after   10 cycles
 Optimization completed.
    -- Stationary point found.
 Normal termination of Gaussian 16 at Sat May 20 02:43:01 2023.

 ----------------------------------------------------------------------
 #N Geom=AllCheck Guess=TCheck SCRF=Check GenChk UB3LYP/6-31G(2df,p) Fr
 eq
 ----------------------------------------------------------------------

 Structure from the checkpoint file:  "[S]N1CC1dC1NCdCCdNC1dS.chk"
 -------------------
 Title Card Required
 -------------------
 Charge =  0 Multiplicity = 2

                         Standard orientation:
 ---------------------------------------------------------------------
 Center     Atomic      Atomic             Coordinates (Angstroms)
 Number     Number       Type             X           Y           Z
 ---------------------------------------------------------------------
      1         16           0        3.465239   -0.916756    0.123114
      2          7           0        2.367459    0.242875   -0.292331
      3          6           0        2.066074    1.673043   -0.527080
      4          6           0        1.094728    0.589522   -0.291723
      5          6           0       -0.120720    0.031447   -0.056965
      6          7           0       -0.101199   -1.319590    0.320592
      7          6           0       -1.119146   -2.199812    0.450985
      8          6           0       -2.423196   -2.047894    0.077916
      9          6           0       -2.947307   -0.914387   -0.618161
     10          7           0       -2.490672    0.293276   -0.681918
     11          6           0       -1.383859    0.801354   -0.074791
     12         16           0       -1.405759    2.309430    0.603557
     13          1           0        2.237918    2.042549   -1.536277
     14          1           0        2.290481    2.367408    0.281297
     15          1           0        0.824703   -1.663201    0.560318
     16          1           0       -0.799114   -3.147508    0.871477
     17          1           0       -3.069869   -2.908691    0.195802
     18          1           0       -3.864361   -1.088916   -1.184845
 ---------------------------------------------------------------------

 SCF Done:  E(UB3LYP) =  -1230.88041727     A.U. after    1 cycles

 The electronic state is 2-A.
 Alpha  occ. eigenvalues --  -88.88171 -88.85011 -14.42711 -14.41946 -14.35056
 Alpha  occ. eigenvalues --  -10.28803 -10.27375 -10.27252 -10.26540 -10.26083
 Alpha  occ. eigenvalues --  -10.26033 -10.21011  -7.94231  -7.91544  -5.90902
 Alpha  occ. eigenvalues --   -5.90432  -5.89693  -5.87867  -5.87772  -5.87126
 Alpha  occ. eigenvalues --   -1.04669  -1.00698  -0.95515  -0.84527  -0.79201
 Alpha  occ. eigenvalues --   -0.77224  -0.75860  -0.67499  -0.65599  -0.62790
 Alpha  occ. eigenvalues --   -0.60743  -0.56919  -0.53653  -0.51848  -0.50142
 Alpha  occ. eigenvalues --   -0.49736  -0.45707  -0.45032  -0.44341  -0.43677
 Alpha  occ. eigenvalues --   -0.40325  -0.37722  -0.37361  -0.36234  -0.33832
 Alpha  occ. eigenvalues --   -0.28794  -0.25622  -0.24740  -0.23695  -0.22796
 Alpha  occ. eigenvalues --   -0.19157
 Alpha virt. eigenvalues --   -0.09749  -0.04410   0.01030   0.02661   0.05115
 Alpha virt. eigenvalues --    0.06526   0.07692   0.09768   0.10603   0.11039
 Alpha virt. eigenvalues --    0.13885   0.15925   0.16247   0.17159   0.19630

  Beta  occ. eigenvalues --  -88.87941 -88.84961 -14.42116 -14.41806 -14.34907
  Beta  occ. eigenvalues --  -10.28853 -10.27437 -10.26825 -10.26556 -10.26247
  Beta  occ. eigenvalues --  -10.26138 -10.20860  -7.94007  -7.91495  -5.90786
  Beta  occ. eigenvalues --   -5.89672  -5.89558  -5.87831  -5.87690  -5.87024
  Beta  occ. eigenvalues --   -1.03932  -1.00289  -0.95271  -0.84148  -0.78626
  Beta  occ. eigenvalues --   -0.77062  -0.75392  -0.67312  -0.65431  -0.62476
  Beta  occ. eigenvalues --   -0.60551  -0.56767  -0.53362  -0.51030  -0.49693
  Beta  occ. eigenvalues --   -0.48985  -0.45328  -0.44573  -0.44093  -0.43408
  Beta  occ. eigenvalues --   -0.39853  -0.37210  -0.36412  -0.35689  -0.32598
  Beta  occ. eigenvalues --   -0.28035  -0.24927  -0.23529  -0.23147  -0.21380
  Beta virt. eigenvalues --   -0.12306  -0.09685  -0.03658   0.01708   0.03475
  Beta virt. eigenvalues --    0.05360   0.07199   0.07845   0.09875   0.10726
  Beta virt. eigenvalues --    0.11236   0.14023   0.16032   0.16331   0.17366

 Mulliken charges and spin densities:
               1          2
     1  S   -0.302355   0.412842
     2  N   -0.028814   0.231772
     3  C   -0.297276  -0.008034
     4  C    0.383007  -0.117462
     5  C    0.042191   0.253966
     6  N   -0.363513   0.061295
     7  C    0.041431  -0.040278
     8  C   -0.157445   0.110329
     9  C    0.021009  -0.033671
    10  N   -0.250748   0.070972
    11  C    0.253202  -0.028228
    12  S   -0.332517   0.080271
    13  H    0.153266   0.005720
    14  H    0.160950   0.005121
    15  H    0.292733  -0.003301
    16  H    0.143107   0.001236
    17  H    0.112620  -0.004658
    18  H    0.129154   0.002106
 Sum of Mulliken charges =  -0.00000   1.00000

 Dipole moment (field-independent basis, Debye):
    X=             -0.8274    Y=             -3.3204    Z=             -0.3775  Tot=              3.4427
 Quadrupole moment (field-independent basis, Debye-Ang):
   XX=            -91.8172   YY=            -77.4112   ZZ=            -82.9342
   XY=             15.3201   XZ=              0.0009   YZ=             -4.1210

  Exact polarizability: 259.344  -5.730 176.046   5.993   1.299  76.470
 Approx polarizability: 447.661 -25.397 342.334  21.853  11.719 138.520

                      1                      2                      3
                      A                      A                      A
 Frequencies --     50.5775                53.7595                72.3441
 Red. masses --      8.5454                 6.6736                 9.1969
 Frc consts  --      0.0129                 0.0114                 0.0284
 IR Inten    --      2.0347                 1.5143                 5.0648

                      4                      5                      6
                      A                      A                      A
 Frequencies --     88.1664               156.5961               184.2996
 Red. masses --      6.0433                 3.4291                 9.0326
 Frc consts  --      0.0277                 0.0495                 0.1808
 IR Inten    --      3.7343                 7.0971                 1.3687

                      7                      8                      9
                      A                      A                      A
 Frequencies --    226.3401               307.8958               332.6839
 Red. masses --      5.8338                 4.8120                 7.8311
 Frc consts  --      0.1761                 0.2688                 0.5107
 IR Inten    --      0.9771                11.3614                 2.1678

                     10                     11                     12
                      A                      A                      A
 Frequencies --    344.1167               418.3973               437.9613
 Red. masses --      5.7495                 5.3619                 5.3764
 Frc consts  --      0.4011                 0.5530                 0.6076
 IR Inten    --      1.1632                 1.8486                 8.7660

                     13                     14                     15
                      A                      A                      A
 Frequencies --    489.5993               546.9511               573.0202
 Red. masses --      5.1253                 7.7025                 4.4573
 Frc consts  --      0.7239                 1.3576                 0.8623
 IR Inten    --     20.1511                 2.1894                22.2277

                     16                     17                     18
                      A                      A                      A
 Frequencies --    629.8062               671.5111               682.2187
 Red. masses --      5.4915                 2.2198                 2.3901
 Frc consts  --      1.2834                 0.5897                 0.6554
 IR Inten    --      5.5181                33.1540                21.5235

                     19                     20                     21
                      A                      A                      A
 Frequencies --    719.4716               760.8777               891.3487
 Red. masses --      7.5002                 1.2768                 8.2687
 Frc consts  --      2.2874                 0.4355                 3.8707
 IR Inten    --     15.5502                28.5493                25.7704

                     22                     23                     24
                      A                      A                      A
 Frequencies --    946.8619               948.7115               968.9733
 Red. masses --      6.0634                 1.9502                 1.3434
 Frc consts  --      3.2029                 1.0342                 0.7432
 IR Inten    --      9.1190                32.8755                 9.7698

                     25                     26                     27
                      A                      A                      A
 Frequencies --    987.4154               999.7472              1022.2056
 Red. masses --      1.4404                 2.1240                 3.2983
 Frc consts  --      0.8274                 1.2508                 2.0305
 IR Inten    --      2.5949                 2.7684                 3.0052

                     28                     29                     30
                      A                      A                      A
 Frequencies --   1067.6582              1076.8121              1143.7817
 Red. masses --      2.4927                 1.3066                 1.7465
 Frc consts  --      1.6741                 0.8926                 1.3462
 IR Inten    --     18.4127                 2.5824                21.7186

                     31                     32                     33
                      A                      A                      A
 Frequencies --   1168.8379              1220.1790              1255.9646
 Red. masses --      2.2641                 3.2319                 2.6269
 Frc consts  --      1.8224                 2.8350                 2.4415
 IR Inten    --     54.3042                62.7996                35.7354

                     34                     35                     36
                      A                      A                      A
 Frequencies --   1350.2902              1377.5724              1437.6037
 Red. masses --      5.2434                 1.9417                 1.3754
 Frc consts  --      5.6327                 2.1710                 1.6748
 IR Inten    --     28.0418               173.1018                46.0788

                     37                     38                     39
                      A                      A                      A
 Frequencies --   1472.5996              1501.6466              1523.0564
 Red. masses --      1.8295                 1.1587                 4.2665
 Frc consts  --      2.3375                 1.5394                 5.8312
 IR Inten    --     63.1996                 3.2168               263.7508

                     40                     41                     42
                      A                      A                      A
 Frequencies --   1601.3363              1668.2352              1689.0696
 Red. masses --      1.9968                 5.0333                 7.7766
 Frc consts  --      3.0168                 8.2531                13.0719
 IR Inten    --     84.3415                54.4653               448.0024

                     43                     44                     45
                      A                      A                      A
 Frequencies --   3087.8766              3106.3298              3182.3974
 Red. masses --      1.0486                 1.0869                 1.1197
 Frc consts  --      5.8911                 6.1793                 6.6813
 IR Inten    --     22.0569                43.2741                 6.0219

                     46                     47                     48
                      A                      A                      A
 Frequencies --   3188.2581              3209.3173              3495.1051
 Red. masses --      1.0872                 1.0929                 1.0784
 Frc consts  --      6.5112                 6.6322                 7.7619
 IR Inten    --      0.6017                 5.3416                24.1208

 - Thermochemistry -
 -------------------
 Temperature   298.150 Kelvin.  Pressure   1.00000 Atm.
 Atom     1 has atomic number 16 and mass  31.97207

 Molecular mass:   196.00032 amu.
 Principal axes and moments of inertia in atomic units:
                           1         2         3
     Eigenvalues --  1630.779353450.209984811.33972
           X            0.99889   0.04709   0.00068
           Y           -0.04708   0.99879  -0.01390
           Z           -0.00133   0.01385   0.99990
 This molecule is an asymmetric top.
 Rotational symmetry number  1.
 Warning -- assumption of classical behavior for rotation
           may cause significant error
 Rotational temperatures (Kelvin)      0.05311     0.02510     0.01800
 Rotational constants (GHZ):           1.10667     0.52308     0.37510
 Zero-point vibrational energy     325000.2 (Joules/Mol)
                                   77.67691 (Kcal/Mol)
 Warning -- explicit consideration of  15 degrees of freedom as
           vibrations may cause significant error
 Vibrational temperatures:     72.77    77.35   104.09   126.85   225.31
          (Kelvin)            265.17   325.65   442.99   478.66   495.11
                              601.98   630.13   704.42   786.94   824.45
                              906.15   966.15   981.56  1035.16  1094.73
                             1282.45  1362.32  1364.98  1394.14  1420.67
                             1438.41  1470.73  1536.12  1549.29  1645.65
                             1681.70  1755.57  1807.05  1942.77  1982.02
                             2068.39  2118.74  2160.53  2191.34  2303.97
                             2400.22  2430.19  4442.77  4469.32  4578.76
                             4587.19  4617.49  5028.68

 Zero-point correction=                           0.123786 (Hartree/Particle)
 Thermal correction to Energy=                    0.134940
 Thermal correction to Enthalpy=                  0.135884
 Thermal correction to Gibbs Free Energy=         0.084158
 Sum of electronic and zero-point Energies=          -1230.756631
 Sum of electronic and thermal Energies=             -1230.745477
 Sum of electronic and thermal Enthalpies=           -1230.744533
 Sum of electronic and thermal Free Energies=        -1230.796259

                     E (Thermal)             CV                S
                      KCal/Mol        Cal/Mol-Kelvin    Cal/Mol-Kelvin
 Total                   84.676             39.864            108.866
 Electronic               0.000              0.000              1.377
 Translational            0.889              2.981             41.724
 Rotational               0.889              2.981             31.671
 Vibrational             82.899             33.902             34.094
 Vibration     1          0.595              1.977              4.795
 Vibration     2          0.596              1.976              4.674
 Vibration     3          0.598              1.967              4.089
 Vibration     4          0.601              1.957              3.700
 Vibration     5          0.620              1.895              2.591
 Vibration     6          0.631              1.861              2.284
 Vibration     7          0.650              1.801              1.908
 Vibration     8          0.698              1.659              1.374
 Vibration     9          0.715              1.610              1.247
 Vibration    10          0.723              1.587              1.193
 Vibration    11          0.781              1.430              0.897
 Vibration    12          0.798              1.387              0.833
 Vibration    13          0.845              1.273              0.685
 Vibration    14          0.902              1.146              0.551
 Vibration    15          0.929              1.090              0.498

 Optimization completed.
    -- Stationary point found.
 Normal termination of Gaussian 16 at Sat May 20 04:20:41 2023.
