 Gaussian 16, Revision A.03,
 Gaussian 16:  ES64L-G16RevA.03 25-Dec-2016

 -----------------------------
 # opt freq b3lyp/6-31g(2df,p)
 -----------------------------

 -------------------
 Title Card Required
 -------------------
 Symbolic Z-matrix:
 Charge =  0 Multiplicity = 2

 SCF Done:  E(UB3LYP) =  -1596.88354083     A.U. after   25 cycles
 SCF Done:  E(UB3LYP) =  -1596.91378975     A.U. after   17 cycles
 SCF Done:  E(UB3LYP) =  -1596.93536492     A.U. after   18 cycles
 SCF Done:  E(UB3LYP) =  -1596.94316412     A.U. after   19 cycles
 SCF Done:  E(UB3LYP) =  -1596.94782668     A.U. after   19 cycles
 SCF Done:  E(UB3LYP) =  -1596.94939212     A.U. after   17 cycles
 SCF Done:  E(UB3LYP) =  -1596.94954319     A.U. after   16 cycles
 SCF Done:  E(UB3LYP) =  -1596.95052299     A.U. after   16 cycles
 SCF Done:  E(UB3LYP) =  -1596.95104548     A.U. after   16 cycles
 SCF Done:  E(UB3LYP) =  -1596.95117396     A.U. after   19 cycles
 SCF Done:  E(UB3LYP) =  -1596.95148846     A.U. after   16 cycles
 SCF Done:  E(UB3LYP) =  -1596.95154056     A.U. after   16 cycles
 SCF Done:  E(UB3LYP) =  -1596.95154458     A.U. after   12 cycles
 SCF Done:  E(UB3LYP) =  -1596.95154614     A.U. after   12 cycles
 SCF Done:  E(UB3LYP) =  -1596.95154648     A.U. after   11 cycles
 SCF Done:  E(UB3LYP) =  -1596.95154676     A.U. after   12 cycles
 SCF Done:  E(UB3LYP) =  -1596.95154681     A.U. after   10 cycles
 Optimization completed.
    -- Stationary point found.
 Normal termination of Gaussian 16 at Wed May 17 15:59:00 2023.

 ----------------------------------------------------------------------
 #N Geom=AllCheck Guess=TCheck SCRF=Check GenChk UB3LYP/6-31G(2df,p) Fr
 eq
 ----------------------------------------------------------------------

 Structure from the checkpoint file:  "[S]NCC1SC2dCC2dCCdCC1dS.chk"
 -------------------
 Title Card Required
 -------------------
 Charge =  0 Multiplicity = 2

                         Standard orientation:
 ---------------------------------------------------------------------
 Center     Atomic      Atomic             Coordinates (Angstroms)
 Number     Number       Type             X           Y           Z
 ---------------------------------------------------------------------
      1         16           0        4.051892   -0.196660   -0.713807
      2          7           0        2.919431   -0.084046    0.472992
      3          6           0        1.865575    0.914355    0.519419
      4          6           0        0.645613    0.466268   -0.305568
      5         16           0       -0.536513    1.938448   -0.298959
      6          6           0       -2.069552    1.224060   -0.117886
      7          6           0       -3.373761    1.361505    0.153360
      8          6           0       -2.935296    0.082422   -0.234756
      9          6           0       -3.052767   -1.211980   -0.601095
     10          6           0       -1.912086   -1.933815   -1.093721
     11          6           0       -0.611710   -1.625188   -0.852065
     12          6           0       -0.104294   -0.754458    0.198502
     13         16           0       -0.300095   -1.028494    1.813787
     14          1           0        2.828346   -0.844845    1.134278
     15          1           0        2.264866    1.848707    0.115758
     16          1           0        1.563034    1.064460    1.558694
     17          1           0        0.943282    0.323128   -1.347866
     18          1           0       -4.184594    2.017464    0.420404
     19          1           0       -4.035294   -1.668194   -0.634789
     20          1           0       -2.115958   -2.717739   -1.822038
     21          1           0        0.145428   -1.986383   -1.548869
 ---------------------------------------------------------------------

 SCF Done:  E(UB3LYP) =  -1596.95154681     A.U. after    1 cycles

 The electronic state is 2-A.
 Alpha  occ. eigenvalues --  -88.93074 -88.88017 -88.85107 -14.39552 -10.27324
 Alpha  occ. eigenvalues --  -10.26321 -10.25501 -10.24916 -10.24504 -10.24347
 Alpha  occ. eigenvalues --  -10.20736 -10.18977 -10.18305  -7.99186  -7.94173
 Alpha  occ. eigenvalues --   -7.91618  -5.95661  -5.95297  -5.94792  -5.90741
 Alpha  occ. eigenvalues --   -5.90645  -5.89550  -5.87937  -5.87864  -5.87161
 Alpha  occ. eigenvalues --   -0.95657  -0.94396  -0.86215  -0.81762  -0.77073
 Alpha  occ. eigenvalues --   -0.75282  -0.70866  -0.68698  -0.64579  -0.60954
 Alpha  occ. eigenvalues --   -0.59062  -0.55578  -0.52620  -0.50170  -0.49900
 Alpha  occ. eigenvalues --   -0.48663  -0.45755  -0.44790  -0.43103  -0.41983
 Alpha  occ. eigenvalues --   -0.41523  -0.40472  -0.38984  -0.37709  -0.36213
 Alpha  occ. eigenvalues --   -0.34969  -0.32382  -0.31104  -0.28908  -0.27795
 Alpha  occ. eigenvalues --   -0.23749  -0.22131  -0.21280  -0.19689
 Alpha virt. eigenvalues --   -0.09322  -0.03774  -0.02100   0.01938   0.02461
 Alpha virt. eigenvalues --    0.04727   0.07976   0.09162   0.09449   0.10205
 Alpha virt. eigenvalues --    0.10873   0.11501   0.13384   0.14464   0.15878

  Beta  occ. eigenvalues --  -88.93072 -88.87651 -88.85106 -14.38756 -10.27323
  Beta  occ. eigenvalues --  -10.26322 -10.25447 -10.24914 -10.24502 -10.24386
  Beta  occ. eigenvalues --  -10.20735 -10.18977 -10.18305  -7.99185  -7.93815
  Beta  occ. eigenvalues --   -7.91617  -5.95659  -5.95294  -5.94791  -5.90469
  Beta  occ. eigenvalues --   -5.89517  -5.89339  -5.87936  -5.87864  -5.87160
  Beta  occ. eigenvalues --   -0.94518  -0.94085  -0.86060  -0.81727  -0.77058
  Beta  occ. eigenvalues --   -0.74915  -0.70839  -0.67954  -0.63613  -0.60804
  Beta  occ. eigenvalues --   -0.59027  -0.55512  -0.52217  -0.50134  -0.49656
  Beta  occ. eigenvalues --   -0.48465  -0.45162  -0.43890  -0.42996  -0.41733
  Beta  occ. eigenvalues --   -0.41392  -0.40320  -0.38600  -0.37518  -0.36045
  Beta  occ. eigenvalues --   -0.32649  -0.31435  -0.30452  -0.28838  -0.27728
  Beta  occ. eigenvalues --   -0.23028  -0.22000  -0.19687
  Beta virt. eigenvalues --   -0.10156  -0.09297  -0.03706  -0.02066   0.02106
  Beta virt. eigenvalues --    0.02940   0.05135   0.07986   0.09287   0.09548
  Beta virt. eigenvalues --    0.10363   0.10919   0.11519   0.13450   0.14501

 Mulliken charges and spin densities:
               1          2
     1  S   -0.233372   0.657917
     2  N   -0.184586   0.335500
     3  C   -0.166867  -0.019939
     4  C   -0.083455   0.023441
     5  S   -0.059356   0.003199
     6  C    0.169480   0.000542
     7  C   -0.340017   0.000725
     8  C    0.355873   0.000696
     9  C   -0.330213  -0.000269
    10  C   -0.018149   0.000800
    11  C   -0.190759   0.000062
    12  C    0.208631  -0.000687
    13  S   -0.353854   0.001285
    14  H    0.283548  -0.011986
    15  H    0.143548   0.006226
    16  H    0.161340   0.004663
    17  H    0.144786  -0.001886
    18  H    0.177647   0.000003
    19  H    0.096679   0.000059
    20  H    0.105086  -0.000034
    21  H    0.114013  -0.000315
 Sum of Mulliken charges =  -0.00000   1.00000

 Dipole moment (field-independent basis, Debye):
    X=             -3.1244    Y=              1.8470    Z=             -0.8047  Tot=              3.7176
 Quadrupole moment (field-independent basis, Debye-Ang):
   XX=            -96.1283   YY=            -94.6465   ZZ=            -98.8806
   XY=             -4.0590   XZ=              4.6651   YZ=              4.4480

  Exact polarizability: 210.765  -5.283 146.167  -1.397   6.513 127.239
 Approx polarizability: 335.186 -11.640 256.084  -4.195  11.814 257.355

                      1                      2                      3
                      A                      A                      A
 Frequencies --     34.7882                45.5939                76.7885
 Red. masses --      9.7670                 9.1963                 8.2143
 Frc consts  --      0.0070                 0.0113                 0.0285
 IR Inten    --      3.2766                 1.5774                 2.1813

                      4                      5                      6
                      A                      A                      A
 Frequencies --     93.0291               162.3046               173.6128
 Red. masses --      9.5833                 4.2692                 5.6315
 Frc consts  --      0.0489                 0.0663                 0.1000
 IR Inten    --      0.6475                 5.2532                 1.9294

                      7                      8                      9
                      A                      A                      A
 Frequencies --    202.8269               215.0020               282.6117
 Red. masses --      5.0360                 9.9423                 4.5549
 Frc consts  --      0.1221                 0.2708                 0.2143
 IR Inten    --      6.5135                 3.8000                 8.4932

                     10                     11                     12
                      A                      A                      A
 Frequencies --    289.1547               335.6144               355.4734
 Red. masses --      3.6520                 3.0597                 3.5768
 Frc consts  --      0.1799                 0.2031                 0.2663
 IR Inten    --     14.6687                 8.3113                11.7774

                     13                     14                     15
                      A                      A                      A
 Frequencies --    414.8060               431.4392               443.1066
 Red. masses --      2.7685                 1.7947                 3.6839
 Frc consts  --      0.2807                 0.1968                 0.4262
 IR Inten    --     31.0302                38.9362                64.5807

                     16                     17                     18
                      A                      A                      A
 Frequencies --    497.2606               532.0586               535.9476
 Red. masses --      3.1433                 5.0651                 4.7040
 Frc consts  --      0.4579                 0.8448                 0.7961
 IR Inten    --     34.8474                18.4864                28.0512

                     19                     20                     21
                      A                      A                      A
 Frequencies --    569.8882               612.3200               664.6775
 Red. masses --      7.0447                 6.1127                 3.6421
 Frc consts  --      1.3480                 1.3503                 0.9480
 IR Inten    --     10.6514                 5.6540                16.6041

                     22                     23                     24
                      A                      A                      A
 Frequencies --    704.3756               730.4784               763.8000
 Red. masses --      2.2413                 2.8705                 1.4895
 Frc consts  --      0.6552                 0.9024                 0.5120
 IR Inten    --     55.1722                18.5083                18.6670

                     25                     26                     27
                      A                      A                      A
 Frequencies --    783.7450               825.4976               831.0738
 Red. masses --      1.7217                 2.8882                 3.6153
 Frc consts  --      0.6231                 1.1596                 1.4712
 IR Inten    --     20.1929                 5.2623                 7.3920

                     28                     29                     30
                      A                      A                      A
 Frequencies --    927.3326               958.6120               971.3898
 Red. masses --      3.1388                 2.5790                 1.8577
 Frc consts  --      1.5903                 1.3963                 1.0328
 IR Inten    --     34.3282                22.6508                13.1635

                     31                     32                     33
                      A                      A                      A
 Frequencies --   1012.4496              1026.7313              1066.2198
 Red. masses --      1.8076                 2.6280                 2.5520
 Frc consts  --      1.0917                 1.6322                 1.7094
 IR Inten    --      0.3081                 4.9878                11.2564

                     34                     35                     36
                      A                      A                      A
 Frequencies --   1105.4938              1115.4961              1123.1105
 Red. masses --      3.1381                 4.2433                 2.7108
 Frc consts  --      2.2596                 3.1109                 2.0146
 IR Inten    --     24.8071                10.2834                28.1713

                     37                     38                     39
                      A                      A                      A
 Frequencies --   1163.7518              1200.4453              1231.9233
 Red. masses --      1.7441                 1.2243                 1.2292
 Frc consts  --      1.3917                 1.0395                 1.0991
 IR Inten    --     34.4780                 2.9479                39.7381

                     40                     41                     42
                      A                      A                      A
 Frequencies --   1295.5624              1357.1785              1368.1494
 Red. masses --      1.5050                 1.3365                 1.3661
 Frc consts  --      1.4884                 1.4504                 1.5066
 IR Inten    --     41.8599                10.3689                13.4091

                     43                     44                     45
                      A                      A                      A
 Frequencies --   1378.8803              1428.8489              1432.2573
 Red. masses --      1.4645                 1.2604                 1.8378
 Frc consts  --      1.6405                 1.5161                 2.2212
 IR Inten    --     31.2445                26.1274                 9.2671

                     46                     47                     48
                      A                      A                      A
 Frequencies --   1459.8498              1507.7482              1614.4563
 Red. masses --      1.1021                 7.4591                 6.1939
 Frc consts  --      1.3839                 9.9906                 9.5119
 IR Inten    --     16.8786               198.6269               103.4227

                     49                     50                     51
                      A                      A                      A
 Frequencies --   1822.9205              3062.7708              3078.7076
 Red. masses --      8.7014                 1.0577                 1.0847
 Frc consts  --     17.0362                 5.8457                 6.0577
 IR Inten    --    192.7865                 7.2495                 2.6554

                     52                     53                     54
                      A                      A                      A
 Frequencies --   3114.2139              3124.3546              3138.3029
 Red. masses --      1.0817                 1.1068                 1.0907
 Frc consts  --      6.1808                 6.3657                 6.3293
 IR Inten    --      4.0741                 0.7210                22.2898

                     55                     56                     57
                      A                      A                      A
 Frequencies --   3188.3872              3284.4777              3566.8609
 Red. masses --      1.0886                 1.1131                 1.0765
 Frc consts  --      6.5202                 7.0748                 8.0691
 IR Inten    --      9.7795                10.7376                27.2078

 - Thermochemistry -
 -------------------
 Temperature   298.150 Kelvin.  Pressure   1.00000 Atm.
 Atom     1 has atomic number 16 and mass  31.97207

 Molecular mass:   225.98189 amu.
 Principal axes and moments of inertia in atomic units:
                           1         2         3
     Eigenvalues --  1805.446644935.527315512.65006
           X            0.99993   0.00781   0.00904
           Y           -0.00838   0.99790   0.06417
           Z           -0.00852  -0.06425   0.99790
 This molecule is an asymmetric top.
 Rotational symmetry number  1.
 Warning -- assumption of classical behavior for rotation
           may cause significant error
 Rotational temperatures (Kelvin)      0.04797     0.01755     0.01571
 Rotational constants (GHZ):           0.99961     0.36566     0.32738
 Zero-point vibrational energy     387196.2 (Joules/Mol)
                                   92.54212 (Kcal/Mol)
 Warning -- explicit consideration of  20 degrees of freedom as
           vibrations may cause significant error
 Vibrational temperatures:     50.05    65.60   110.48   133.85   233.52
          (Kelvin)            249.79   291.82   309.34   406.62   416.03
                              482.87   511.45   596.81   620.74   637.53
                              715.45   765.51   771.11   819.94   880.99
                              956.32  1013.44  1051.00  1098.94  1127.63
                             1187.71  1195.73  1334.22  1379.23  1397.61
                             1456.69  1477.24  1534.05  1590.56  1604.95
                             1615.91  1674.38  1727.17  1772.46  1864.03
                             1952.68  1968.46  1983.90  2055.79  2060.70
                             2100.40  2169.31  2322.84  2622.78  4406.64
                             4429.57  4480.66  4495.25  4515.32  4587.38
                             4725.63  5131.92

 Zero-point correction=                           0.147475 (Hartree/Particle)
 Thermal correction to Energy=                    0.160347
 Thermal correction to Enthalpy=                  0.161291
 Thermal correction to Gibbs Free Energy=         0.105975
 Sum of electronic and zero-point Energies=          -1596.804072
 Sum of electronic and thermal Energies=             -1596.791200
 Sum of electronic and thermal Enthalpies=           -1596.790255
 Sum of electronic and thermal Free Energies=        -1596.845572

                     E (Thermal)             CV                S
                      KCal/Mol        Cal/Mol-Kelvin    Cal/Mol-Kelvin
 Total                  100.619             47.515            116.423
 Electronic               0.000              0.000              1.377
 Translational            0.889              2.981             42.148
 Rotational               0.889              2.981             32.263
 Vibrational             98.842             41.553             40.634
 Vibration     1          0.594              1.983              5.536
 Vibration     2          0.595              1.979              5.000
 Vibration     3          0.599              1.965              3.971
 Vibration     4          0.602              1.954              3.595
 Vibration     5          0.622              1.889              2.523
 Vibration     6          0.627              1.875              2.396
 Vibration     7          0.639              1.836              2.107
 Vibration     8          0.645              1.818              2.001
 Vibration     9          0.682              1.706              1.518
 Vibration    10          0.686              1.694              1.479
 Vibration    11          0.717              1.604              1.233
 Vibration    12          0.731              1.564              1.142
 Vibration    13          0.778              1.438              0.910
 Vibration    14          0.792              1.402              0.854
 Vibration    15          0.803              1.376              0.817
 Vibration    16          0.853              1.256              0.665
 Vibration    17          0.887              1.179              0.583
 Vibration    18          0.891              1.171              0.574
 Vibration    19          0.926              1.096              0.504
 Vibration    20          0.972              1.006              0.429

 Optimization completed.
    -- Stationary point found.
 Normal termination of Gaussian 16 at Wed May 17 18:37:09 2023.
