 Gaussian 16, Revision A.03,
 Gaussian 16:  ES64L-G16RevA.03 25-Dec-2016

 -----------------------------
 # opt freq b3lyp/6-31g(2df,p)
 -----------------------------

 -------------------
 Title Card Required
 -------------------
 Symbolic Z-matrix:
 Charge =  0 Multiplicity = 1

 SCF Done:  E(RB3LYP) =  -1580.12803202     A.U. after   25 cycles
 SCF Done:  E(RB3LYP) =  -1580.17472952     A.U. after   18 cycles
 SCF Done:  E(RB3LYP) =  -1580.23367919     A.U. after   17 cycles
 SCF Done:  E(RB3LYP) =  -1580.25716439     A.U. after   15 cycles
 SCF Done:  E(RB3LYP) =  -1580.27643517     A.U. after   15 cycles
 SCF Done:  E(RB3LYP) =  -1580.28448557     A.U. after   14 cycles
 SCF Done:  E(RB3LYP) =  -1580.28820506     A.U. after   14 cycles
 SCF Done:  E(RB3LYP) =  -1580.28968477     A.U. after   14 cycles
 SCF Done:  E(RB3LYP) =  -1580.29009313     A.U. after   14 cycles
 SCF Done:  E(RB3LYP) =  -1580.29091321     A.U. after   13 cycles
 SCF Done:  E(RB3LYP) =  -1580.29059839     A.U. after   14 cycles
 SCF Done:  E(RB3LYP) =  -1580.29140370     A.U. after   12 cycles
 SCF Done:  E(RB3LYP) =  -1580.29145477     A.U. after   11 cycles
 SCF Done:  E(RB3LYP) =  -1580.29146520     A.U. after   10 cycles
 SCF Done:  E(RB3LYP) =  -1580.29146675     A.U. after    9 cycles
 SCF Done:  E(RB3LYP) =  -1580.29146729     A.U. after    9 cycles
 Optimization completed.
    -- Stationary point found.
 Normal termination of Gaussian 16 at Wed May 17 12:05:18 2023.

 ----------------------------------------------------------------------
 #N Geom=AllCheck Guess=TCheck SCRF=Check GenChk RB3LYP/6-31G(2df,p) Fr
 eq
 ----------------------------------------------------------------------

 Structure from the checkpoint file:  "[SH]tSC1dC2CdCCdC2CdCCdCS1.chk"
 -------------------
 Title Card Required
 -------------------
 Charge =  0 Multiplicity = 1

                         Standard orientation:
 ---------------------------------------------------------------------
 Center     Atomic      Atomic             Coordinates (Angstroms)
 Number     Number       Type             X           Y           Z
 ---------------------------------------------------------------------
      1         16           0       -3.432117   -0.240511    0.611192
      2         16           0       -1.954408   -0.801326   -0.745582
      3          6           0       -0.407131   -0.003622   -0.264286
      4          6           0        0.654458   -0.881043   -0.065634
      5          6           0        0.435314   -2.317484    0.213143
      6          6           0        1.630290   -2.939242    0.337971
      7          6           0        2.691020   -1.969596    0.111940
      8          6           0        2.152952   -0.744097   -0.108563
      9          6           0        2.759197    0.548428   -0.458493
     10          6           0        2.703053    1.544620    0.463909
     11          6           0        1.728777    2.489405   -0.024014
     12          6           0        0.544908    2.513771    0.654734
     13         16           0       -0.747951    1.761817   -0.293066
     14          1           0       -3.868485    0.881905    0.002235
     15          1           0       -0.537085   -2.760955    0.348067
     16          1           0        1.786600   -3.982075    0.577960
     17          1           0        3.750927   -2.187878    0.117514
     18          1           0        2.725159    0.824453   -1.513314
     19          1           0        2.694567    1.299931    1.522024
     20          1           0        1.724189    2.691323   -1.091939
     21          1           0        0.518711    2.266768    1.712499
 ---------------------------------------------------------------------

 SCF Done:  E(RB3LYP) =  -1580.29146729     A.U. after    1 cycles

 The electronic state is 1-A.
 Alpha  occ. eigenvalues --  -88.91329 -88.90983 -88.89915 -10.27104 -10.23714
 Alpha  occ. eigenvalues --  -10.22240 -10.21836 -10.21585 -10.20444 -10.19922
 Alpha  occ. eigenvalues --  -10.18898 -10.18015 -10.17926  -7.97456  -7.96912
 Alpha  occ. eigenvalues --   -7.96502  -5.93984  -5.93560  -5.93406  -5.92997
 Alpha  occ. eigenvalues --   -5.92976  -5.92974  -5.92594  -5.92556  -5.91984
 Alpha  occ. eigenvalues --   -0.88418  -0.85334  -0.83775  -0.78882  -0.75663
 Alpha  occ. eigenvalues --   -0.72787  -0.68264  -0.66952  -0.61942  -0.58829
 Alpha  occ. eigenvalues --   -0.57494  -0.53987  -0.51958  -0.49517  -0.46595
 Alpha  occ. eigenvalues --   -0.44196  -0.43932  -0.42759  -0.41308  -0.40364
 Alpha  occ. eigenvalues --   -0.39164  -0.38255  -0.37719  -0.36376  -0.35087
 Alpha  occ. eigenvalues --   -0.34826  -0.31298  -0.29318  -0.26359  -0.25872
 Alpha  occ. eigenvalues --   -0.22939  -0.21502  -0.21013
 Alpha virt. eigenvalues --   -0.08706  -0.05866  -0.04499  -0.02948   0.02689
 Alpha virt. eigenvalues --    0.03307   0.04260   0.07046   0.07850   0.09232
 Alpha virt. eigenvalues --    0.11016   0.12523   0.14498   0.15112   0.16225

 Mulliken charges:
               1
     1  S   -0.182326
     2  S   -0.056793
     3  C   -0.002801
     4  C    0.146209
     5  C   -0.134756
     6  C   -0.130826
     7  C   -0.230710
     8  C    0.188967
     9  C   -0.208723
    10  C   -0.102640
    11  C   -0.040395
    12  C   -0.172596
    13  S   -0.090973
    14  H    0.182175
    15  H    0.127756
    16  H    0.101966
    17  H    0.106219
    18  H    0.119591
    19  H    0.124654
    20  H    0.135752
    21  H    0.120251
 Sum of Mulliken charges =  -0.00000

 Dipole moment (field-independent basis, Debye):
    X=              1.6203    Y=              0.6699    Z=              0.1310  Tot=              1.7582
 Quadrupole moment (field-independent basis, Debye-Ang):
   XX=            -91.9811   YY=            -95.3606   ZZ=            -96.2570
   XY=             -1.9666   XZ=             -0.1349   YZ=             -1.4038

  Exact polarizability: 228.536 -26.545 191.653  -3.532  -0.919 100.230
 Approx polarizability: 426.778 -98.479 381.294 -13.152  10.296 194.092

                      1                      2                      3
                      A                      A                      A
 Frequencies --     35.0318                66.5814               103.7577
 Red. masses --      8.9074                 8.5223                 4.5216
 Frc consts  --      0.0064                 0.0223                 0.0287
 IR Inten    --      1.0341                 0.1651                 1.1444

                      4                      5                      6
                      A                      A                      A
 Frequencies --    136.1591               163.9864               209.9056
 Red. masses --      5.6748                 7.6588                 5.1168
 Frc consts  --      0.0620                 0.1213                 0.1328
 IR Inten    --      0.2752                 0.2453                 3.9488

                      7                      8                      9
                      A                      A                      A
 Frequencies --    229.8179               234.1219               300.6982
 Red. masses --      4.0808                 5.1762                 4.5372
 Frc consts  --      0.1270                 0.1672                 0.2417
 IR Inten    --      1.4407                 0.6028                 2.0959

                     10                     11                     12
                      A                      A                      A
 Frequencies --    326.5746               362.5383               373.1842
 Red. masses --      1.3023                 3.3717                 3.8918
 Frc consts  --      0.0818                 0.2611                 0.3193
 IR Inten    --     26.1200                16.8572                 2.8133

                     13                     14                     15
                      A                      A                      A
 Frequencies --    394.4903               405.7284               476.5102
 Red. masses --      6.8252                 5.2104                 5.5200
 Frc consts  --      0.6258                 0.5053                 0.7385
 IR Inten    --      0.9109                 5.2095                 6.3765

                     16                     17                     18
                      A                      A                      A
 Frequencies --    483.6899               512.6890               559.1100
 Red. masses --      9.7661                 6.9233                 4.3236
 Frc consts  --      1.3462                 1.0722                 0.7963
 IR Inten    --      5.9624                 6.3714                 1.7030

                     19                     20                     21
                      A                      A                      A
 Frequencies --    580.0123               666.7034               716.7865
 Red. masses --      3.8795                 2.7817                 3.1402
 Frc consts  --      0.7690                 0.7285                 0.9506
 IR Inten    --      2.0873                11.9847                20.3953

                     22                     23                     24
                      A                      A                      A
 Frequencies --    754.0130               779.8648               784.1996
 Red. masses --      1.9021                 2.2108                 3.2736
 Frc consts  --      0.6372                 0.7922                 1.1861
 IR Inten    --     76.2102                63.1666                14.4380

                     25                     26                     27
                      A                      A                      A
 Frequencies --    795.6104               811.0767               824.2608
 Red. masses --      4.3922                 5.3043                 2.1788
 Frc consts  --      1.6381                 2.0559                 0.8722
 IR Inten    --     47.1942                36.1717                38.7317

                     28                     29                     30
                      A                      A                      A
 Frequencies --    859.1486               869.5393               885.0636
 Red. masses --      2.3442                 1.2022                 1.5800
 Frc consts  --      1.0195                 0.5356                 0.7292
 IR Inten    --      8.9199                 1.7346                 5.0064

                     31                     32                     33
                      A                      A                      A
 Frequencies --    922.9269               982.5600              1012.7445
 Red. masses --      1.3419                 1.2240                 1.7698
 Frc consts  --      0.6734                 0.6962                 1.0695
 IR Inten    --      0.3291                15.7898                 5.5971

                     34                     35                     36
                      A                      A                      A
 Frequencies --   1064.0083              1089.9140              1135.6525
 Red. masses --      1.2536                 2.9733                 1.2978
 Frc consts  --      0.8362                 2.0810                 0.9862
 IR Inten    --     52.0885                27.3879                26.8337

                     37                     38                     39
                      A                      A                      A
 Frequencies --   1147.6068              1189.0859              1203.1523
 Red. masses --      2.5984                 5.9871                 1.1779
 Frc consts  --      2.0163                 4.9876                 1.0046
 IR Inten    --      1.9639                 8.4161                 5.5229

                     40                     41                     42
                      A                      A                      A
 Frequencies --   1263.6477              1291.8416              1318.7715
 Red. masses --      1.5340                 1.2465                 1.6413
 Frc consts  --      1.4432                 1.2256                 1.6818
 IR Inten    --      2.4560                14.9833                 8.5595

                     43                     44                     45
                      A                      A                      A
 Frequencies --   1343.2800              1366.8911              1455.9514
 Red. masses --      1.3261                 1.9972                 7.6668
 Frc consts  --      1.4098                 2.1986                 9.5754
 IR Inten    --      1.4384                42.3866               122.8461

                     46                     47                     48
                      A                      A                      A
 Frequencies --   1496.9999              1541.7590              1559.0433
 Red. masses --      4.1722                 5.9081                 5.0676
 Frc consts  --      5.5088                 8.2744                 7.2572
 IR Inten    --     72.5927                69.4549                16.2550

                     49                     50                     51
                      A                      A                      A
 Frequencies --   1638.5670              2643.5183              3101.4601
 Red. masses --      6.5117                 1.0393                 1.0847
 Frc consts  --     10.3009                 4.2792                 6.1476
 IR Inten    --      1.8108                 0.7569                13.4323

                     52                     53                     54
                      A                      A                      A
 Frequencies --   3151.5218              3162.3129              3172.5278
 Red. masses --      1.0880                 1.0890                 1.0891
 Frc consts  --      6.3669                 6.4162                 6.4583
 IR Inten    --      7.6497                 6.5465                 8.6044

                     55                     56                     57
                      A                      A                      A
 Frequencies --   3215.2375              3230.2370              3274.9302
 Red. masses --      1.0905                 1.0958                 1.0979
 Frc consts  --      6.6421                 6.7366                 6.9379
 IR Inten    --      7.3686                10.9841                 1.8163

 - Thermochemistry -
 -------------------
 Temperature   298.150 Kelvin.  Pressure   1.00000 Atm.
 Atom     1 has atomic number 16 and mass  31.97207

 Molecular mass:   223.97882 amu.
 Principal axes and moments of inertia in atomic units:
                           1         2         3
     Eigenvalues --  2263.386603658.799505528.86930
           X            0.99990  -0.01445   0.00036
           Y            0.01445   0.99989  -0.00351
           Z           -0.00031   0.00352   0.99999
 This molecule is an asymmetric top.
 Rotational symmetry number  1.
 Warning -- assumption of classical behavior for rotation
           may cause significant error
 Rotational temperatures (Kelvin)      0.03827     0.02367     0.01567
 Rotational constants (GHZ):           0.79736     0.49326     0.32642
 Zero-point vibrational energy     380873.1 (Joules/Mol)
                                   91.03085 (Kcal/Mol)
 Warning -- explicit consideration of  19 degrees of freedom as
           vibrations may cause significant error
 Vibrational temperatures:     50.40    95.80   149.28   195.90   235.94
          (Kelvin)            302.01   330.66   336.85   432.64   469.87
                              521.61   536.93   567.58   583.75   685.59
                              695.92   737.65   804.43   834.51   959.24
                             1031.30  1084.86  1122.05  1128.29  1144.71
                             1166.96  1185.93  1236.12  1251.07  1273.41
                             1327.89  1413.68  1457.11  1530.87  1568.14
                             1633.95  1651.15  1710.83  1731.07  1818.11
                             1858.67  1897.42  1932.68  1966.65  2094.79
                             2153.85  2218.25  2243.12  2357.53  3803.43
                             4462.31  4534.34  4549.86  4564.56  4626.01
                             4647.59  4711.89

 Zero-point correction=                           0.145067 (Hartree/Particle)
 Thermal correction to Energy=                    0.157540
 Thermal correction to Enthalpy=                  0.158484
 Thermal correction to Gibbs Free Energy=         0.105424
 Sum of electronic and zero-point Energies=          -1580.146400
 Sum of electronic and thermal Energies=             -1580.133928
 Sum of electronic and thermal Enthalpies=           -1580.132984
 Sum of electronic and thermal Free Energies=        -1580.186043

                     E (Thermal)             CV                S
                      KCal/Mol        Cal/Mol-Kelvin    Cal/Mol-Kelvin
 Total                   98.858             47.475            111.673
 Electronic               0.000              0.000              0.000
 Translational            0.889              2.981             42.122
 Rotational               0.889              2.981             32.193
 Vibrational             97.080             41.514             37.359
 Vibration     1          0.594              1.982              5.522
 Vibration     2          0.598              1.970              4.252
 Vibration     3          0.605              1.946              3.382
 Vibration     4          0.614              1.917              2.857
 Vibration     5          0.623              1.887              2.503
 Vibration     6          0.642              1.826              2.044
 Vibration     7          0.652              1.795              1.880
 Vibration     8          0.654              1.789              1.847
 Vibration     9          0.693              1.672              1.413
 Vibration    10          0.710              1.622              1.277
 Vibration    11          0.736              1.549              1.111
 Vibration    12          0.745              1.527              1.067
 Vibration    13          0.761              1.482              0.983
 Vibration    14          0.771              1.458              0.942
 Vibration    15          0.833              1.302              0.720
 Vibration    16          0.840              1.286              0.700
 Vibration    17          0.868              1.222              0.627
 Vibration    18          0.915              1.120              0.526
 Vibration    19          0.937              1.075              0.485

                           ! Non-Optimized Parameters !
 Normal termination of Gaussian 16 at Wed May 17 13:28:02 2023.
