 Gaussian 16, Revision A.03,
 Gaussian 16:  ES64L-G16RevA.03 25-Dec-2016

 -----------------------------
 # opt freq b3lyp/6-31g(2df,p)
 -----------------------------

 -------------------
 Title Card Required
 -------------------
 Symbolic Z-matrix:
 Charge =  0 Multiplicity = 1

 SCF Done:  E(RB3LYP) =  -1265.66566370     A.U. after   20 cycles
 SCF Done:  E(RB3LYP) =  -1265.72146959     A.U. after   14 cycles
 SCF Done:  E(RB3LYP) =  -1265.76939500     A.U. after   14 cycles
 SCF Done:  E(RB3LYP) =  -1265.79545310     A.U. after   14 cycles
 SCF Done:  E(RB3LYP) =  -1265.80337998     A.U. after   14 cycles
 SCF Done:  E(RB3LYP) =  -1265.80789875     A.U. after   14 cycles
 SCF Done:  E(RB3LYP) =  -1265.81066312     A.U. after   14 cycles
 SCF Done:  E(RB3LYP) =  -1265.81149829     A.U. after   14 cycles
 SCF Done:  E(RB3LYP) =  -1265.81296780     A.U. after   13 cycles
 SCF Done:  E(RB3LYP) =  -1265.81224705     A.U. after   12 cycles
 SCF Done:  E(RB3LYP) =  -1265.81444374     A.U. after    7 cycles
 SCF Done:  E(RB3LYP) =  -1265.81444376     A.U. after    7 cycles
 SCF Done:  E(RB3LYP) =  -1265.81444378     A.U. after    6 cycles
 SCF Done:  E(RB3LYP) =  -1265.81444378     A.U. after    6 cycles
 SCF Done:  E(RB3LYP) =  -1265.81444379     A.U. after    6 cycles
 SCF Done:  E(RB3LYP) =  -1265.81444379     A.U. after    6 cycles
 SCF Done:  E(RB3LYP) =  -1265.81444379     A.U. after    6 cycles
 SCF Done:  E(RB3LYP) =  -1265.81444379     A.U. after    6 cycles
 SCF Done:  E(RB3LYP) =  -1265.81444379     A.U. after    6 cycles
 Optimization completed.
    -- Stationary point found.
 Normal termination of Gaussian 16 at Wed May 17 11:31:35 2023.

 ----------------------------------------------------------------------
 #N Geom=AllCheck Guess=TCheck SCRF=Check GenChk RB3LYP/6-31G(2df,p) Fr
 eq
 ----------------------------------------------------------------------

 Structure from the checkpoint file:  "C.Cd[SH]CqdOrCd[SH]CCCCqCrC.chk"
 -------------------
 Title Card Required
 -------------------
 Charge =  0 Multiplicity = 1

                         Standard orientation:
 ---------------------------------------------------------------------
 Center     Atomic      Atomic             Coordinates (Angstroms)
 Number     Number       Type             X           Y           Z
 ---------------------------------------------------------------------
      1          6           0       -5.889901    2.858260   -0.209680
      2          6           0       -5.097254   -1.055424   -1.125299
      3         16           0       -3.997581   -1.474407    0.027610
      4          6           0       -2.496000   -0.220746    0.221236
      5          8           0       -2.746506    0.943465    0.006245
      6          6           0       -1.306079   -0.861017    0.626894
      7         16           0        0.038283    0.133776    0.891582
      8          6           0        1.457327   -0.384359   -0.181515
      9          6           0        2.770654    0.255145    0.263983
     10          6           0        3.937346   -0.150460   -0.650582
     11          6           0        5.279995    0.528179   -0.318963
     12          6           0        5.808882    0.142011    1.069690
     13          6           0        6.317905    0.202075   -1.401572
     14          1           0       -6.611196    2.613566    0.574075
     15          1           0       -6.407898    2.908810   -1.170500
     16          1           0       -5.113606    2.091719   -0.249733
     17          1           0       -5.437983    3.829056    0.007931
     18          1           0       -6.051035   -0.760124   -0.714002
     19          1           0       -4.781431   -0.665934   -2.083341
     20          1           0       -3.168984   -2.451034   -0.472557
     21          1           0       -1.206595   -1.933348    0.721847
     22          1           0        0.628462   -0.310875    2.038194
     23          1           0        1.157470   -0.063639   -1.182822
     24          1           0        1.496031   -1.477006   -0.167526
     25          1           0        2.985643   -0.038922    1.298467
     26          1           0        2.665133    1.347282    0.262921
     27          1           0        3.668889    0.090060   -1.687375
     28          1           0        4.066143   -1.241427   -0.613343
     29          1           0        5.113203    1.615138   -0.328906
     30          1           0        5.961164   -0.941831    1.142096
     31          1           0        5.128102    0.439363    1.873016
     32          1           0        6.772019    0.623801    1.265210
     33          1           0        6.520815   -0.874935   -1.438381
     34          1           0        7.266740    0.710532   -1.203599
     35          1           0        5.972463    0.510130   -2.393855
 ---------------------------------------------------------------------

 SCF Done:  E(RB3LYP) =  -1265.81444379     A.U. after    1 cycles

 The electronic state is 1-A.
 Alpha  occ. eigenvalues --  -88.98139 -88.91162 -19.10523 -10.25164 -10.24876
 Alpha  occ. eigenvalues --  -10.22275 -10.20745 -10.20712 -10.19156 -10.18993
 Alpha  occ. eigenvalues --  -10.18740 -10.13185 -10.13179  -8.03788  -7.96874
 Alpha  occ. eigenvalues --   -6.00108  -6.00020  -5.99568  -5.93164  -5.93078
 Alpha  occ. eigenvalues --   -5.92715  -1.01594  -0.87788  -0.83482  -0.79316
 Alpha  occ. eigenvalues --   -0.78516  -0.71857  -0.69888  -0.67531  -0.65610
 Alpha  occ. eigenvalues --   -0.63119  -0.59218  -0.57915  -0.52262  -0.52125
 Alpha  occ. eigenvalues --   -0.49324  -0.48207  -0.46568  -0.44952  -0.44321
 Alpha  occ. eigenvalues --   -0.43837  -0.42473  -0.41535  -0.40293  -0.39969
 Alpha  occ. eigenvalues --   -0.39749  -0.38279  -0.38060  -0.37164  -0.36667
 Alpha  occ. eigenvalues --   -0.35556  -0.35537  -0.34945  -0.34346  -0.34255
 Alpha  occ. eigenvalues --   -0.34090  -0.33610  -0.29444  -0.24301  -0.21856
 Alpha  occ. eigenvalues --   -0.15350
 Alpha virt. eigenvalues --   -0.01987   0.01531   0.02769   0.04102   0.05957
 Alpha virt. eigenvalues --    0.07073   0.08281   0.08561   0.08922   0.10024
 Alpha virt. eigenvalues --    0.12013   0.12198   0.13262   0.13506   0.13781

 Mulliken charges:
               1
     1  C   -0.556289
     2  C   -0.413585
     3  S   -0.006070
     4  C    0.267447
     5  O   -0.328972
     6  C   -0.328848
     7  S    0.113390
     8  C   -0.226308
     9  C   -0.212989
    10  C   -0.178697
    11  C    0.036626
    12  C   -0.384223
    13  C   -0.390505
    14  H    0.116453
    15  H    0.118098
    16  H    0.178492
    17  H    0.116613
    18  H    0.114810
    19  H    0.104698
    20  H    0.093758
    21  H    0.107969
    22  H    0.150312
    23  H    0.156844
    24  H    0.143514
    25  H    0.110426
    26  H    0.126931
    27  H    0.102109
    28  H    0.099026
    29  H    0.077893
    30  H    0.113837
    31  H    0.112070
    32  H    0.119628
    33  H    0.114978
    34  H    0.116449
    35  H    0.114114
 Sum of Mulliken charges =  -0.00000

 Dipole moment (field-independent basis, Debye):
    X=              9.7491    Y=             -1.7812    Z=              1.3408  Tot=             10.0008
 Quadrupole moment (field-independent basis, Debye-Ang):
   XX=           -120.4317   YY=           -101.6293   ZZ=            -96.2346
   XY=              1.8404   XZ=             -3.1551   YZ=             -1.6479

  Exact polarizability: 267.512  11.112 136.271  20.631   1.231 132.151
 Approx polarizability: 321.275   8.735 226.561  39.549  -0.427 210.248

                      1                      2                      3
                      A                      A                      A
 Frequencies --     10.0442                18.3975                19.8501
 Red. masses --      3.4429                 1.0480                 2.7624
 Frc consts  --      0.0002                 0.0002                 0.0006
 IR Inten    --      0.3233                 0.0251                 0.4991

                      4                      5                      6
                      A                      A                      A
 Frequencies --     26.5658                30.9769                37.5070
 Red. masses --      4.1965                 3.6587                 5.1257
 Frc consts  --      0.0017                 0.0021                 0.0042
 IR Inten    --      0.8438                 3.5252                 1.2694

                      7                      8                      9
                      A                      A                      A
 Frequencies --     56.5993                70.0451                74.5595
 Red. masses --      2.9900                 2.9259                 4.2935
 Frc consts  --      0.0056                 0.0085                 0.0141
 IR Inten    --      0.4859                 0.6084                 0.7129

                     10                     11                     12
                      A                      A                      A
 Frequencies --     92.9627               104.3999               117.2553
 Red. masses --      2.6247                 2.4516                 1.0849
 Frc consts  --      0.0134                 0.0157                 0.0088
 IR Inten    --      0.1550                 0.1028                 0.6514

                     13                     14                     15
                      A                      A                      A
 Frequencies --    130.7300               137.5032               161.0647
 Red. masses --      2.9502                 2.7720                 3.2720
 Frc consts  --      0.0297                 0.0309                 0.0500
 IR Inten    --      0.5561                 0.5273                 1.1692

                     16                     17                     18
                      A                      A                      A
 Frequencies --    164.5253               195.5955               211.2880
 Red. masses --      1.2017                 4.5741                 2.5453
 Frc consts  --      0.0192                 0.1031                 0.0669
 IR Inten    --      0.2700                 3.6265                 1.3383

                     19                     20                     21
                      A                      A                      A
 Frequencies --    228.1787               249.7007               271.3268
 Red. masses --      1.1951                 1.2533                 2.9085
 Frc consts  --      0.0367                 0.0460                 0.1262
 IR Inten    --      0.3160                 1.8606                17.8033

                     22                     23                     24
                      A                      A                      A
 Frequencies --    321.0924               334.7266               365.7457
 Red. masses --      2.2435                 2.5370                 2.4994
 Frc consts  --      0.1363                 0.1675                 0.1970
 IR Inten    --     24.8413                25.3885                34.4680

                     25                     26                     27
                      A                      A                      A
 Frequencies --    389.6801               429.7758               461.5108
 Red. masses --      2.2501                 2.1236                 2.5309
 Frc consts  --      0.2013                 0.2311                 0.3176
 IR Inten    --      4.5993                 0.5758                 6.4027

                     28                     29                     30
                      A                      A                      A
 Frequencies --    486.2052               559.8520               629.3043
 Red. masses --      1.7674                 1.3896                 1.7045
 Frc consts  --      0.2462                 0.2566                 0.3977
 IR Inten    --     48.3664                46.8587                49.8769

                     31                     32                     33
                      A                      A                      A
 Frequencies --    642.1135               725.3415               734.4790
 Red. masses --      2.0188                 3.9044                 1.1793
 Frc consts  --      0.4904                 1.2103                 0.3748
 IR Inten    --     23.7571                12.2585                10.8856

                     34                     35                     36
                      A                      A                      A
 Frequencies --    742.5834               776.7106               819.4452
 Red. masses --      1.4420                 1.7033                 2.1485
 Frc consts  --      0.4685                 0.6054                 0.8500
 IR Inten    --      8.0235                 6.5549                 3.0399

                     37                     38                     39
                      A                      A                      A
 Frequencies --    841.2940               872.4640               928.3072
 Red. masses --      1.8884                 3.4593                 1.2019
 Frc consts  --      0.7875                 1.5514                 0.6102
 IR Inten    --      1.1491               154.0374                 2.0327

                     40                     41                     42
                      A                      A                      A
 Frequencies --    944.7966               955.4106               961.7981
 Red. masses --      1.6484                 1.4834                 1.2766
 Frc consts  --      0.8669                 0.7978                 0.6958
 IR Inten    --     85.2431               125.5995                 0.6841

                     43                     44                     45
                      A                      A                      A
 Frequencies --    968.6372               985.6300              1020.0022
 Red. masses --      1.5032                 3.8780                 2.2777
 Frc consts  --      0.8310                 2.2197                 1.3962
 IR Inten    --     29.9594                24.5077                 1.3004

                     46                     47                     48
                      A                      A                      A
 Frequencies --   1036.1775              1047.1109              1076.7314
 Red. masses --      1.7867                 2.5635                 1.5863
 Frc consts  --      1.1302                 1.6560                 1.0835
 IR Inten    --     92.1545                 0.8503                49.4505

                     49                     50                     51
                      A                      A                      A
 Frequencies --   1129.6655              1147.6284              1163.2733
 Red. masses --      1.3139                 1.9157                 1.2492
 Frc consts  --      0.9879                 1.4865                 0.9960
 IR Inten    --     12.6912                38.7584                27.4437

                     52                     53                     54
                      A                      A                      A
 Frequencies --   1192.8874              1214.5002              1239.8086
 Red. masses --      1.7583                 1.7120                 1.2481
 Frc consts  --      1.4742                 1.4878                 1.1303
 IR Inten    --     12.8798                10.1998                13.5256

                     55                     56                     57
                      A                      A                      A
 Frequencies --   1287.2115              1309.4915              1327.5531
 Red. masses --      1.2835                 1.3044                 1.4872
 Frc consts  --      1.2530                 1.3178                 1.5443
 IR Inten    --      2.7803                 7.1436                27.3239

                     58                     59                     60
                      A                      A                      A
 Frequencies --   1330.6417              1333.2897              1349.1864
 Red. masses --      1.1762                 1.1987                 1.1805
 Frc consts  --      1.2271                 1.2555                 1.2661
 IR Inten    --      6.1209                 7.2560                 7.8362

                     61                     62                     63
                      A                      A                      A
 Frequencies --   1357.3938              1361.0960              1373.6061
 Red. masses --      1.1774                 1.3861                 1.3170
 Frc consts  --      1.2782                 1.5129                 1.4641
 IR Inten    --      6.7533                 9.5977                10.9440

                     64                     65                     66
                      A                      A                      A
 Frequencies --   1392.4300              1403.1265              1411.7048
 Red. masses --      1.4872                 1.2545                 1.1071
 Frc consts  --      1.6989                 1.4552                 1.2999
 IR Inten    --      1.2472                 4.3258                 2.3901

                     67                     68                     69
                      A                      A                      A
 Frequencies --   1424.6400              1468.8217              1478.0658
 Red. masses --      1.2352                 1.0900                 1.0719
 Frc consts  --      1.4770                 1.3856                 1.3797
 IR Inten    --      3.2562                 3.3280                 2.5481

                     70                     71                     72
                      A                      A                      A
 Frequencies --   1488.7329              1495.4094              1501.7060
 Red. masses --      1.0462                 1.0554                 1.0919
 Frc consts  --      1.3662                 1.3906                 1.4508
 IR Inten    --      0.8568                 1.1311                 1.8934

                     73                     74                     75
                      A                      A                      A
 Frequencies --   1506.0971              1511.8168              1565.0081
 Red. masses --      1.0581                 1.0498                 1.0085
 Frc consts  --      1.4140                 1.4138                 1.4554
 IR Inten    --      2.2066                11.2590                 0.0009

                     76                     77                     78
                      A                      A                      A
 Frequencies --   1570.6314              1782.7549              2345.4942
 Red. masses --      1.0081                11.7604                 1.0385
 Frc consts  --      1.4652                22.0219                 3.3660
 IR Inten    --      0.0948               303.0486               120.7993

                     79                     80                     81
                      A                      A                      A
 Frequencies --   2480.1681              2996.7752              3008.4253
 Red. masses --      1.0387                 1.0797                 1.0606
 Frc consts  --      3.7646                 5.7132                 5.6559
 IR Inten    --     90.4858                 6.4884                15.8390

                     82                     83                     84
                      A                      A                      A
 Frequencies --   3024.5415              3026.8578              3029.9724
 Red. masses --      1.0411                 1.0535                 1.0379
 Frc consts  --      5.6111                 5.6867                 5.6142
 IR Inten    --     13.3116                35.5363                23.9371

                     85                     86                     87
                      A                      A                      A
 Frequencies --   3030.3263              3042.9574              3064.1276
 Red. masses --      1.0081                 1.1003                 1.0577
 Frc consts  --      5.4544                 6.0030                 5.8512
 IR Inten    --     12.8956                 6.9644                 5.9735

                     88                     89                     90
                      A                      A                      A
 Frequencies --   3070.0838              3090.8887              3096.2972
 Red. masses --      1.1039                 1.0998                 1.0994
 Frc consts  --      6.1305                 6.1907                 6.2101
 IR Inten    --     28.8647                10.8147                51.6958

                     91                     92                     93
                      A                      A                      A
 Frequencies --   3102.5705              3105.4173              3125.1931
 Red. masses --      1.1016                 1.1007                 1.1084
 Frc consts  --      6.2474                 6.2542                 6.3780
 IR Inten    --     22.6556                56.0263                 7.0911

                     94                     95                     96
                      A                      A                      A
 Frequencies --   3137.6875              3139.4700              3160.0012
 Red. masses --      1.0999                 1.1001                 1.1020
 Frc consts  --      6.3800                 6.3884                 6.4833
 IR Inten    --     27.7737                24.6555                 0.0297

                     97                     98                     99
                      A                      A                      A
 Frequencies --   3170.1545              3213.7591              3287.4213
 Red. masses --      1.0467                 1.0882                 1.1203
 Frc consts  --      6.1979                 6.6222                 7.1334
 IR Inten    --      2.2468                 1.4438                 1.4980

 - Thermochemistry -
 -------------------
 Temperature   298.150 Kelvin.  Pressure   1.00000 Atm.
 Atom     1 has atomic number  6 and mass  12.00000

 Molecular mass:   222.11121 amu.
 Principal axes and moments of inertia in atomic units:
                           1         2         3
     Eigenvalues --  1404.78033********************
           X            0.99992  -0.01253   0.00181
           Y            0.01255   0.99989  -0.00764
           Z           -0.00172   0.00767   0.99997
 This molecule is an asymmetric top.
 Rotational symmetry number  1.
 Warning -- assumption of classical behavior for rotation
           may cause significant error
 Rotational temperatures (Kelvin)      0.06166     0.00668     0.00643
 Rotational constants (GHZ):           1.28471     0.13918     0.13390
 Zero-point vibrational energy     773581.8 (Joules/Mol)
                                  184.89048 (Kcal/Mol)
 Warning -- explicit consideration of  29 degrees of freedom as
           vibrations may cause significant error
 Vibrational temperatures:     14.45    26.47    28.56    38.22    44.57
          (Kelvin)             53.96    81.43   100.78   107.27   133.75
                              150.21   168.70   188.09   197.84   231.74
                              236.72   281.42   304.00   328.30   359.26
                              390.38   461.98   481.60   526.23   560.66
                              618.35   664.01   699.54   805.50   905.43
                              923.86  1043.60  1056.75  1068.41  1117.51
                             1179.00  1210.43  1255.28  1335.63  1359.35
                             1374.62  1383.81  1393.65  1418.10  1467.56
                             1490.83  1506.56  1549.18  1625.34  1651.18
                             1673.69  1716.30  1747.39  1783.81  1852.01
                             1884.07  1910.05  1914.50  1918.31  1941.18
                             1952.99  1958.31  1976.31  2003.40  2018.79
                             2031.13  2049.74  2113.31  2126.61  2141.95
                             2151.56  2160.62  2166.94  2175.17  2251.70
                             2259.79  2564.99  3374.64  3568.41  4311.69
                             4328.45  4351.64  4354.97  4359.45  4359.96
                             4378.14  4408.60  4417.17  4447.10  4454.88
                             4463.91  4468.00  4496.46  4514.43  4517.00
                             4546.54  4561.15  4623.88  4729.87

 Zero-point correction=                           0.294642 (Hartree/Particle)
 Thermal correction to Energy=                    0.316467
 Thermal correction to Enthalpy=                  0.317411
 Thermal correction to Gibbs Free Energy=         0.237025
 Sum of electronic and zero-point Energies=          -1265.519802
 Sum of electronic and thermal Energies=             -1265.497977
 Sum of electronic and thermal Enthalpies=           -1265.497032
 Sum of electronic and thermal Free Energies=        -1265.577419

                     E (Thermal)             CV                S
                      KCal/Mol        Cal/Mol-Kelvin    Cal/Mol-Kelvin
 Total                  198.586             71.726            169.188
 Electronic               0.000              0.000              0.000
 Translational            0.889              2.981             42.097
 Rotational               0.889              2.981             33.862
 Vibrational            196.809             65.764             93.229
 Vibration     1          0.593              1.987              8.002
 Vibration     2          0.593              1.986              6.800
 Vibration     3          0.593              1.986              6.649
 Vibration     4          0.593              1.984              6.071
 Vibration     5          0.594              1.984              5.766
 Vibration     6          0.594              1.982              5.387
 Vibration     7          0.596              1.975              4.572
 Vibration     8          0.598              1.968              4.152
 Vibration     9          0.599              1.966              4.029
 Vibration    10          0.602              1.954              3.597
 Vibration    11          0.605              1.946              3.370
 Vibration    12          0.608              1.935              3.145
 Vibration    13          0.612              1.923              2.935
 Vibration    14          0.614              1.916              2.838
 Vibration    15          0.622              1.890              2.537
 Vibration    16          0.623              1.886              2.497
 Vibration    17          0.636              1.846              2.174
 Vibration    18          0.643              1.824              2.033
 Vibration    19          0.651              1.798              1.893
 Vibration    20          0.662              1.763              1.733
 Vibration    21          0.675              1.726              1.588
 Vibration    22          0.707              1.633              1.305
 Vibration    23          0.716              1.606              1.237
 Vibration    24          0.739              1.543              1.098
 Vibration    25          0.758              1.492              1.001
 Vibration    26          0.791              1.405              0.859
 Vibration    27          0.819              1.335              0.762
 Vibration    28          0.842              1.281              0.694
 Vibration    29          0.915              1.118              0.524

 Optimization completed.
    -- Stationary point found.
 Normal termination of Gaussian 16 at Wed May 17 12:53:31 2023.
