 Gaussian 16, Revision A.03,
 Gaussian 16:  ES64L-G16RevA.03 25-Dec-2016

 -----------------------------
 # opt freq b3lyp/6-31g(2df,p)
 -----------------------------

 -------------------
 Title Card Required
 -------------------
 Symbolic Z-matrix:
 Charge =  0 Multiplicity = 1

 SCF Done:  E(RB3LYP) =  -648.263059527     A.U. after   23 cycles
 SCF Done:  E(RB3LYP) =  -648.339055529     A.U. after   19 cycles
 SCF Done:  E(RB3LYP) =  -648.436980201     A.U. after   18 cycles
 SCF Done:  E(RB3LYP) =  -648.524966260     A.U. after   17 cycles
 SCF Done:  E(RB3LYP) =  -648.587917884     A.U. after   16 cycles
 SCF Done:  E(RB3LYP) =  -648.657727047     A.U. after   17 cycles
 SCF Done:  E(RB3LYP) =  -648.700720101     A.U. after   15 cycles
 SCF Done:  E(RB3LYP) =  -648.718873664     A.U. after   14 cycles
 SCF Done:  E(RB3LYP) =  -648.725911043     A.U. after   14 cycles
 SCF Done:  E(RB3LYP) =  -648.729764363     A.U. after   14 cycles
 SCF Done:  E(RB3LYP) =  -648.815827112     A.U. after   10 cycles
 SCF Done:  E(RB3LYP) =  -648.815830619     A.U. after   10 cycles
 SCF Done:  E(RB3LYP) =  -648.815834008     A.U. after   10 cycles
 SCF Done:  E(RB3LYP) =  -648.815835869     A.U. after    8 cycles
 SCF Done:  E(RB3LYP) =  -648.815836532     A.U. after    8 cycles
 SCF Done:  E(RB3LYP) =  -648.815836746     A.U. after    7 cycles
 SCF Done:  E(RB3LYP) =  -648.815836853     A.U. after    7 cycles
 SCF Done:  E(RB3LYP) =  -648.815836934     A.U. after    7 cycles
 SCF Done:  E(RB3LYP) =  -648.815836986     A.U. after    7 cycles
 Optimization completed.
    -- Stationary point found.
 Normal termination of Gaussian 16 at Sat May 20 14:47:09 2023.

 ----------------------------------------------------------------------
 #N Geom=AllCheck Guess=TCheck SCRF=Check GenChk RB3LYP/6-31G(2df,p) Fr
 eq
 ----------------------------------------------------------------------

 Structure from the checkpoint file:  "c1cc2c[nH][nH]c-2ccc2c3cc-3cc2c1.chk"
 -------------------
 Title Card Required
 -------------------
 Charge =  0 Multiplicity = 1

                         Standard orientation:
 ---------------------------------------------------------------------
 Center     Atomic      Atomic             Coordinates (Angstroms)
 Number     Number       Type             X           Y           Z
 ---------------------------------------------------------------------
      1          6           0       -0.197683    2.060215   -0.289279
      2          6           0       -0.764613    0.856579   -1.003795
      3          6           0       -2.046403    0.379903   -0.357406
      4          6           0       -3.226887    0.805226    0.107284
      5          7           0       -3.897599   -0.231572    0.816067
      6          7           0       -3.111043   -1.437206    0.583601
      7          6           0       -1.909217   -1.016491   -0.011156
      8          6           0       -0.711453   -1.527489   -0.333843
      9          6           0        0.143138   -0.456277   -1.013640
     10          6           0        1.497103   -0.253577   -0.364135
     11          6           0        2.529245   -1.156189   -0.261993
     12          6           0        3.736541   -1.661517    0.067713
     13          6           0        3.695017   -0.399807    0.535334
     14          6           0        3.199541    0.855405    0.798356
     15          6           0        1.889366    0.956823    0.265524
     16          6           0        1.003207    2.107464    0.298728
     17          1           0       -0.848433    2.931229   -0.259357
     18          1           0       -0.965993    1.157275   -2.040612
     19          1           0       -3.704860    1.773657    0.064880
     20          1           0       -4.834337   -0.397892    0.450823
     21          1           0       -2.999377   -1.928816    1.462729
     22          1           0       -0.344577   -2.529098   -0.159413
     23          1           0        0.318161   -0.739742   -2.060901
     24          1           0        4.361022   -2.544301   -0.003438
     25          1           0        3.720611    1.645744    1.323019
     26          1           0        1.336852    3.011778    0.798452
 ---------------------------------------------------------------------

 SCF Done:  E(RB3LYP) =  -648.815836986     A.U. after    1 cycles

 The electronic state is 1-A.
 Alpha  occ. eigenvalues --  -14.36738 -14.36484 -10.23621 -10.21277 -10.20370
 Alpha  occ. eigenvalues --  -10.20360 -10.19703 -10.19511 -10.19473 -10.19470
 Alpha  occ. eigenvalues --  -10.19155 -10.18380 -10.18009 -10.18001 -10.17883
 Alpha  occ. eigenvalues --  -10.15526  -1.00345  -0.91185  -0.85462  -0.82187
 Alpha  occ. eigenvalues --   -0.80610  -0.76471  -0.74506  -0.69487  -0.69232
 Alpha  occ. eigenvalues --   -0.62158  -0.61188  -0.57958  -0.55548  -0.54134
 Alpha  occ. eigenvalues --   -0.52754  -0.51249  -0.48880  -0.48077  -0.47619
 Alpha  occ. eigenvalues --   -0.45134  -0.43978  -0.42856  -0.40716  -0.40632
 Alpha  occ. eigenvalues --   -0.39551  -0.39062  -0.37990  -0.36594  -0.34641
 Alpha  occ. eigenvalues --   -0.34395  -0.32214  -0.30906  -0.28955  -0.26403
 Alpha  occ. eigenvalues --   -0.22830  -0.22720  -0.20902  -0.16658
 Alpha virt. eigenvalues --   -0.04146   0.00716   0.04393   0.05919   0.06949
 Alpha virt. eigenvalues --    0.08459   0.09709   0.10380   0.10979   0.12185
 Alpha virt. eigenvalues --    0.13344   0.13513   0.13937   0.15474   0.16028

 Mulliken charges:
               1
     1  C   -0.063905
     2  C   -0.277415
     3  C    0.288458
     4  C   -0.214808
     5  N   -0.296405
     6  N   -0.411606
     7  C    0.376192
     8  C   -0.297890
     9  C   -0.204089
    10  C    0.024082
    11  C    0.206792
    12  C   -0.450244
    13  C    0.261732
    14  C   -0.420669
    15  C    0.312302
    16  C   -0.168828
    17  H    0.097346
    18  H    0.102987
    19  H    0.121091
    20  H    0.247532
    21  H    0.254960
    22  H    0.086938
    23  H    0.086380
    24  H    0.146108
    25  H    0.097633
    26  H    0.095324
 Sum of Mulliken charges =  -0.00000

 Dipole moment (field-independent basis, Debye):
    X=             -1.7934    Y=              0.5257    Z=             -0.0199  Tot=              1.8690
 Quadrupole moment (field-independent basis, Debye-Ang):
   XX=            -81.3938   YY=            -82.6619   ZZ=            -91.2879
   XY=             -4.6014   XZ=             -0.0816   YZ=             -2.2628

  Exact polarizability: 227.638 -30.159 152.483   3.102   6.221  90.501
 Approx polarizability: 366.159 -71.240 274.912   7.249  21.929 165.256

                      1                      2                      3
                      A                      A                      A
 Frequencies --     16.2445                81.5057               121.0095
 Red. masses --      4.9101                 5.1395                 4.2819
 Frc consts  --      0.0008                 0.0201                 0.0369
 IR Inten    --      0.1067                 0.1505                 0.3592

                      4                      5                      6
                      A                      A                      A
 Frequencies --    172.1107               227.3524               267.1965
 Red. masses --      3.7765                 3.8726                 4.7186
 Frc consts  --      0.0659                 0.1179                 0.1985
 IR Inten    --      4.4076                 7.6607                 0.6231

                      7                      8                      9
                      A                      A                      A
 Frequencies --    302.1571               333.3063               374.4831
 Red. masses --      4.7263                 4.5762                 5.3237
 Frc consts  --      0.2542                 0.2995                 0.4399
 IR Inten    --      2.8520                 0.1924                10.3262

                     10                     11                     12
                      A                      A                      A
 Frequencies --    397.9903               411.5607               444.2277
 Red. masses --      2.7228                 7.0228                 3.9019
 Frc consts  --      0.2541                 0.7009                 0.4537
 IR Inten    --     43.3196                29.7423                29.6538

                     13                     14                     15
                      A                      A                      A
 Frequencies --    508.4132               527.0616               563.8329
 Red. masses --      4.4582                 4.7781                 4.5054
 Frc consts  --      0.6790                 0.7820                 0.8439
 IR Inten    --      6.4290                 3.1657                19.4873

                     16                     17                     18
                      A                      A                      A
 Frequencies --    574.7592               613.8847               636.4122
 Red. masses --      6.8303                 5.9793                 3.1627
 Frc consts  --      1.3294                 1.3276                 0.7547
 IR Inten    --     67.0733                 6.2549                15.4168

                     19                     20                     21
                      A                      A                      A
 Frequencies --    650.7517               677.4200               696.3486
 Red. masses --      3.7559                 4.5071                 2.6051
 Frc consts  --      0.9371                 1.2186                 0.7443
 IR Inten    --      4.2594                51.9950                 8.4479

                     22                     23                     24
                      A                      A                      A
 Frequencies --    719.0970               755.0731               764.9099
 Red. masses --      2.3649                 1.6979                 1.9662
 Frc consts  --      0.7205                 0.5704                 0.6778
 IR Inten    --     24.8970                26.1287                 5.5062

                     25                     26                     27
                      A                      A                      A
 Frequencies --    779.7731               789.0179               798.1369
 Red. masses --      1.8039                 2.3516                 2.2099
 Frc consts  --      0.6462                 0.8625                 0.8294
 IR Inten    --      4.4807                26.9224                22.3581

                     28                     29                     30
                      A                      A                      A
 Frequencies --    826.2715               834.5148               841.7419
 Red. masses --      1.6553                 2.2869                 2.5237
 Frc consts  --      0.6659                 0.9383                 1.0535
 IR Inten    --     95.5947               236.1101                22.1024

                     31                     32                     33
                      A                      A                      A
 Frequencies --    873.9004               903.5588               924.0427
 Red. masses --      3.3390                 3.0437                 2.9960
 Frc consts  --      1.5024                 1.4641                 1.5072
 IR Inten    --      7.5360                 8.2692                 4.8199

                     34                     35                     36
                      A                      A                      A
 Frequencies --    976.1914               994.2748               999.5598
 Red. masses --      2.6229                 2.4948                 1.3478
 Frc consts  --      1.4727                 1.4531                 0.7934
 IR Inten    --      2.5244                 0.0384                 3.5068

                     37                     38                     39
                      A                      A                      A
 Frequencies --   1041.0582              1051.1253              1107.3617
 Red. masses --      1.8956                 2.6599                 2.7550
 Frc consts  --      1.2105                 1.7315                 1.9905
 IR Inten    --     60.6100                26.0432                30.4658

                     40                     41                     42
                      A                      A                      A
 Frequencies --   1116.3732              1138.2342              1162.8747
 Red. masses --      3.4966                 3.0735                 1.4019
 Frc consts  --      2.5676                 2.3461                 1.1170
 IR Inten    --      8.4821                11.7800                 0.1051

                     43                     44                     45
                      A                      A                      A
 Frequencies --   1181.4455              1212.0217              1216.8548
 Red. masses --      1.2093                 1.4592                 1.6880
 Frc consts  --      0.9945                 1.2630                 1.4727
 IR Inten    --      3.3167                 1.9485                 1.2960

                     46                     47                     48
                      A                      A                      A
 Frequencies --   1246.3927              1260.7544              1273.6195
 Red. masses --      2.1635                 1.5832                 1.5431
 Frc consts  --      1.9802                 1.4826                 1.4748
 IR Inten    --      2.1755                20.9098                15.3726

                     49                     50                     51
                      A                      A                      A
 Frequencies --   1285.0278              1304.7536              1332.2002
 Red. masses --      1.5816                 1.6478                 1.6157
 Frc consts  --      1.5387                 1.6528                 1.6895
 IR Inten    --      5.8634                 3.5314                 2.4894

                     52                     53                     54
                      A                      A                      A
 Frequencies --   1359.6870              1369.6401              1403.5348
 Red. masses --      3.7937                 1.9150                 1.6805
 Frc consts  --      4.1323                 2.1165                 1.9505
 IR Inten    --     15.6188                 1.9597                16.5482

                     55                     56                     57
                      A                      A                      A
 Frequencies --   1408.8817              1426.5198              1492.6915
 Red. masses --      1.3130                 1.8342                 4.1593
 Frc consts  --      1.5356                 2.1991                 5.4602
 IR Inten    --     10.6262                 0.1797                32.1302

                     58                     59                     60
                      A                      A                      A
 Frequencies --   1568.4856              1687.5246              1690.5230
 Red. masses --     10.0504                 7.2448                 7.5999
 Frc consts  --     14.5679                12.1557                12.7968
 IR Inten    --     27.0601                10.0152                21.4474

                     61                     62                     63
                      A                      A                      A
 Frequencies --   1710.8025              1841.3076              2979.3444
 Red. masses --      8.0358                 8.2158                 1.0835
 Frc consts  --     13.8573                16.4116                 5.6668
 IR Inten    --     91.1398                 9.6668                22.2800

                     64                     65                     66
                      A                      A                      A
 Frequencies --   3008.3569              3148.0860              3173.7597
 Red. masses --      1.0822                 1.0850                 1.1128
 Frc consts  --      5.7708                 6.3356                 6.6043
 IR Inten    --     34.9657                 4.8375                21.1388

                     67                     68                     69
                      A                      A                      A
 Frequencies --   3178.2265              3202.7406              3225.3067
 Red. masses --      1.0951                 1.0921                 1.0940
 Frc consts  --      6.5171                 6.6002                 6.7052
 IR Inten    --     18.6609                16.5385                 7.0157

                     70                     71                     72
                      A                      A                      A
 Frequencies --   3234.8886              3450.0001              3543.5127
 Red. masses --      1.0968                 1.0756                 1.0764
 Frc consts  --      6.7621                 7.5429                 7.9632
 IR Inten    --      2.4065                 2.4739                15.8069

 - Thermochemistry -
 -------------------
 Temperature   298.150 Kelvin.  Pressure   1.00000 Atm.
 Atom     1 has atomic number  6 and mass  12.00000

 Molecular mass:   206.08440 amu.
 Principal axes and moments of inertia in atomic units:
                           1         2         3
     Eigenvalues --  1358.920384815.026015664.39716
           X            1.00000  -0.00291   0.00064
           Y            0.00291   0.99999   0.00212
           Z           -0.00064  -0.00212   1.00000
 This molecule is an asymmetric top.
 Rotational symmetry number  1.
 Warning -- assumption of classical behavior for rotation
           may cause significant error
 Rotational temperatures (Kelvin)      0.06374     0.01799     0.01529
 Rotational constants (GHZ):           1.32807     0.37481     0.31861
 Zero-point vibrational energy     528821.3 (Joules/Mol)
                                  126.39131 (Kcal/Mol)
 Warning -- explicit consideration of  17 degrees of freedom as
           vibrations may cause significant error
 Vibrational temperatures:     23.37   117.27   174.11   247.63   327.11
          (Kelvin)            384.44   434.74   479.55   538.80   572.62
                              592.14   639.14   731.49   758.32   811.23
                              826.95   883.24   915.66   936.29   974.66
                             1001.89  1034.62  1086.38  1100.53  1121.92
                             1135.22  1148.34  1188.82  1200.68  1211.08
                             1257.35  1300.02  1329.49  1404.52  1430.54
                             1438.14  1497.85  1512.33  1593.25  1606.21
                             1637.67  1673.12  1699.84  1743.83  1750.78
                             1793.28  1813.94  1832.45  1848.87  1877.25
                             1916.74  1956.29  1970.61  2019.37  2027.07
                             2052.44  2147.65  2256.70  2427.97  2432.29
                             2461.46  2649.23  4286.61  4328.35  4529.39
                             4566.33  4572.76  4608.03  4640.50  4654.28
                             4963.78  5098.32

 Zero-point correction=                           0.201417 (Hartree/Particle)
 Thermal correction to Energy=                    0.213007
 Thermal correction to Enthalpy=                  0.213951
 Thermal correction to Gibbs Free Energy=         0.162761
 Sum of electronic and zero-point Energies=           -648.614420
 Sum of electronic and thermal Energies=              -648.602830
 Sum of electronic and thermal Enthalpies=            -648.601886
 Sum of electronic and thermal Free Energies=         -648.653076

                     E (Thermal)             CV                S
                      KCal/Mol        Cal/Mol-Kelvin    Cal/Mol-Kelvin
 Total                  133.664             48.289            107.739
 Electronic               0.000              0.000              0.000
 Translational            0.889              2.981             41.873
 Rotational               0.889              2.981             31.983
 Vibrational            131.886             42.328             33.883
 Vibration     1          0.593              1.986              7.047
 Vibration     2          0.600              1.962              3.854
 Vibration     3          0.609              1.932              3.084
 Vibration     4          0.626              1.877              2.412
 Vibration     5          0.651              1.799              1.900
 Vibration     6          0.672              1.733              1.614
 Vibration     7          0.694              1.670              1.405
 Vibration     8          0.715              1.609              1.244
 Vibration     9          0.746              1.524              1.061
 Vibration    10          0.764              1.474              0.970
 Vibration    11          0.776              1.445              0.921
 Vibration    12          0.804              1.374              0.813
 Vibration    13          0.864              1.231              0.637
 Vibration    14          0.882              1.190              0.594
 Vibration    15          0.920              1.110              0.516
 Vibration    16          0.931              1.086              0.495
 Vibration    17          0.973              1.002              0.426

 Optimization completed.
    -- Stationary point found.
 Normal termination of Gaussian 16 at Sat May 20 17:06:33 2023.
