 Gaussian 16, Revision A.03,
 Gaussian 16:  ES64L-G16RevA.03 25-Dec-2016

 -----------------------------
 # opt freq b3lyp/6-31g(2df,p)
 -----------------------------

 -------------------
 Title Card Required
 -------------------
 Symbolic Z-matrix:
 Charge =  0 Multiplicity = 1

 SCF Done:  E(RB3LYP) =  -538.705727036     A.U. after   23 cycles
 SCF Done:  E(RB3LYP) =  -538.437261674     A.U. after   19 cycles
 SCF Done:  E(RB3LYP) =  -538.844001412     A.U. after   17 cycles
 SCF Done:  E(RB3LYP) =  -538.911093507     A.U. after   16 cycles
 SCF Done:  E(RB3LYP) =  -538.972699375     A.U. after   16 cycles
 SCF Done:  E(RB3LYP) =  -538.965263987     A.U. after   20 cycles
 SCF Done:  E(RB3LYP) =  -539.070687331     A.U. after   16 cycles
 SCF Done:  E(RB3LYP) =  -539.130228926     A.U. after   16 cycles
 SCF Done:  E(RB3LYP) =  -539.205152440     A.U. after   16 cycles
 SCF Done:  E(RB3LYP) =  -539.192376278     A.U. after   17 cycles
 SCF Done:  E(RB3LYP) =  -539.436788442     A.U. after   11 cycles
 SCF Done:  E(RB3LYP) =  -539.436927350     A.U. after   11 cycles
 SCF Done:  E(RB3LYP) =  -539.437064798     A.U. after   10 cycles
 SCF Done:  E(RB3LYP) =  -539.437165900     A.U. after   11 cycles
 SCF Done:  E(RB3LYP) =  -539.437181808     A.U. after   10 cycles
 SCF Done:  E(RB3LYP) =  -539.437189584     A.U. after   10 cycles
 SCF Done:  E(RB3LYP) =  -539.437203051     A.U. after   10 cycles
 SCF Done:  E(RB3LYP) =  -539.437206162     A.U. after    8 cycles
 SCF Done:  E(RB3LYP) =  -539.437206579     A.U. after    7 cycles
 Optimization completed.
    -- Stationary point found.
 Normal termination of Gaussian 16 at Sat May 20 15:19:33 2023.

 ----------------------------------------------------------------------
 #N Geom=AllCheck Guess=TCheck SCRF=Check GenChk RB3LYP/6-31G(2df,p) Fr
 eq
 ----------------------------------------------------------------------

 Structure from the checkpoint file:  "c1cccc2c3ccccc3c-2cc1.chk"
 -------------------
 Title Card Required
 -------------------
 Charge =  0 Multiplicity = 1

                         Standard orientation:
 ---------------------------------------------------------------------
 Center     Atomic      Atomic             Coordinates (Angstroms)
 Number     Number       Type             X           Y           Z
 ---------------------------------------------------------------------
      1          6           0        3.446327    0.725855    0.005425
      2          6           0        3.446490   -0.725916   -0.005652
      3          6           0        2.522261   -1.719807   -0.006736
      4          6           0        1.074555   -1.762600    0.000211
      5          6           0        0.175386   -0.769553    0.002757
      6          6           0       -1.281678   -0.709238    0.003740
      7          6           0       -2.462950   -1.447488    0.006776
      8          6           0       -3.641130   -0.706285    0.003073
      9          6           0       -3.641310    0.705901   -0.003500
     10          6           0       -2.463166    1.447418   -0.006694
     11          6           0       -1.281762    0.709323   -0.002924
     12          6           0        0.175230    0.769846   -0.002106
     13          6           0        1.074379    1.762964   -0.000728
     14          6           0        2.521979    1.719623    0.006585
     15          1           0        4.466002    1.106468    0.012810
     16          1           0        4.466291   -1.106237   -0.012464
     17          1           0        2.958271   -2.716631   -0.014646
     18          1           0        0.660649   -2.769134    0.002449
     19          1           0       -2.483034   -2.531669    0.011683
     20          1           0       -4.595524   -1.222959    0.004972
     21          1           0       -4.595816    1.222361   -0.006226
     22          1           0       -2.483476    2.531599   -0.011777
     23          1           0        0.660756    2.769576   -0.003019
     24          1           0        2.958217    2.716369    0.014861
 ---------------------------------------------------------------------

 SCF Done:  E(RB3LYP) =  -539.437206579     A.U. after    1 cycles

 The electronic state is 1-A.
 Alpha  occ. eigenvalues --  -10.20111 -10.20091 -10.19954 -10.19907 -10.19791
 Alpha  occ. eigenvalues --  -10.19788 -10.19638 -10.19593 -10.18638 -10.18637
 Alpha  occ. eigenvalues --  -10.18452 -10.18452 -10.18386 -10.18351  -0.89630
 Alpha  occ. eigenvalues --   -0.82792  -0.80078  -0.78397  -0.75594  -0.73060
 Alpha  occ. eigenvalues --   -0.69799  -0.66997  -0.61255  -0.60583  -0.55239
 Alpha  occ. eigenvalues --   -0.55193  -0.51516  -0.47551  -0.47488  -0.46689
 Alpha  occ. eigenvalues --   -0.45195  -0.43549  -0.42968  -0.41065  -0.40428
 Alpha  occ. eigenvalues --   -0.39298  -0.35711  -0.34781  -0.34383  -0.33769
 Alpha  occ. eigenvalues --   -0.32559  -0.31990  -0.30825  -0.30329  -0.26541
 Alpha  occ. eigenvalues --   -0.22293  -0.18337
 Alpha virt. eigenvalues --   -0.08741  -0.02740   0.00336   0.06883   0.07804
 Alpha virt. eigenvalues --    0.08294   0.09646   0.10490   0.13266   0.13492
 Alpha virt. eigenvalues --    0.14579   0.15428   0.16998   0.17000   0.19773

 Mulliken charges:
               1
     1  C   -0.106213
     2  C   -0.106136
     3  C   -0.086255
     4  C   -0.259338
     5  C    0.091839
     6  C    0.261398
     7  C   -0.286213
     8  C   -0.091845
     9  C   -0.091947
    10  C   -0.286283
    11  C    0.261420
    12  C    0.091851
    13  C   -0.259543
    14  C   -0.085982
    15  H    0.089354
    16  H    0.089354
    17  H    0.090697
    18  H    0.086340
    19  H    0.106867
    20  H    0.103358
    21  H    0.103367
    22  H    0.106875
    23  H    0.086373
    24  H    0.090662
 Sum of Mulliken charges =  -0.00000

 Dipole moment (field-independent basis, Debye):
    X=             -1.4068    Y=             -0.0000    Z=             -0.0001  Tot=              1.4068
 Quadrupole moment (field-independent basis, Debye-Ang):
   XX=            -69.7467   YY=            -70.7552   ZZ=            -85.2133
   XY=             -0.0002   XZ=              0.0043   YZ=             -0.0002

  Exact polarizability: 294.788   0.000 165.039  -0.000  -0.010  54.651
 Approx polarizability: 554.775  -0.002 309.763  -0.030  -0.110  94.154

                      1                      2                      3
                      A                      A                      A
 Frequencies --     39.9232                87.6274               163.9997
 Red. masses --      3.3814                 5.2113                 4.6464
 Frc consts  --      0.0032                 0.0236                 0.0736
 IR Inten    --      0.0005                 1.0917                 0.1524

                      4                      5                      6
                      A                      A                      A
 Frequencies --    192.5824               200.1763               274.1202
 Red. masses --      3.1538                 4.2780                 7.0099
 Frc consts  --      0.0689                 0.1010                 0.3103
 IR Inten    --      0.0020                 0.3546                 0.2539

                      7                      8                      9
                      A                      A                      A
 Frequencies --    343.8969               360.7225               431.7971
 Red. masses --      3.9736                 7.1716                 2.5318
 Frc consts  --      0.2769                 0.5498                 0.2781
 IR Inten    --      1.4833                 0.0388                 1.3536

                     10                     11                     12
                      A                      A                      A
 Frequencies --    459.2761               459.9007               495.1774
 Red. masses --      3.0602                 4.2059                 6.8300
 Frc consts  --      0.3803                 0.5241                 0.9867
 IR Inten    --      0.4179                 0.0013                 6.2974

                     13                     14                     15
                      A                      A                      A
 Frequencies --    550.3377               592.7553               656.8161
 Red. masses --      4.9253                 3.4625                 7.1341
 Frc consts  --      0.8789                 0.7168                 1.8133
 IR Inten    --      0.1121                 0.0000                 0.3726

                     16                     17                     18
                      A                      A                      A
 Frequencies --    685.1124               686.7429               713.5323
 Red. masses --      5.3083                 6.3844                 1.2412
 Frc consts  --      1.4680                 1.7740                 0.3723
 IR Inten    --      0.1309                 4.9113                59.4760

                     19                     20                     21
                      A                      A                      A
 Frequencies --    727.5957               771.2653               799.5778
 Red. masses --      5.7302                 1.2919                 2.1412
 Frc consts  --      1.7873                 0.4528                 0.8065
 IR Inten    --     13.2974                34.6872                 0.0017

                     22                     23                     24
                      A                      A                      A
 Frequencies --    817.1213               826.5221               828.4562
 Red. masses --      4.1279                 5.6170                 1.9227
 Frc consts  --      1.6239                 2.2608                 0.7775
 IR Inten    --      1.6961                 2.9801                 0.0093

                     25                     26                     27
                      A                      A                      A
 Frequencies --    888.3313               901.4252               918.2843
 Red. masses --      1.3802                 1.4124                 1.5224
 Frc consts  --      0.6417                 0.6762                 0.7564
 IR Inten    --      0.0000                 7.3739                 0.0025

                     28                     29                     30
                      A                      A                      A
 Frequencies --    934.8167               936.4160               966.1361
 Red. masses --      1.3609                 5.3735                 5.7647
 Frc consts  --      0.7007                 2.7762                 3.1703
 IR Inten    --      0.0446                 1.5844                 0.5305

                     31                     32                     33
                      A                      A                      A
 Frequencies --    977.2198               985.3218               986.0189
 Red. masses --      1.2562                 1.2396                 3.9640
 Frc consts  --      0.7068                 0.7091                 2.2707
 IR Inten    --      0.0000                 0.0091                 0.2696

                     34                     35                     36
                      A                      A                      A
 Frequencies --   1000.0715              1018.0395              1092.0091
 Red. masses --      1.2227                 2.0246                 2.7000
 Frc consts  --      0.7205                 1.2363                 1.8970
 IR Inten    --      0.0015                 1.4778                 4.6355

                     37                     38                     39
                      A                      A                      A
 Frequencies --   1114.6515              1166.4792              1179.5012
 Red. masses --      2.3665                 1.3680                 1.7069
 Frc consts  --      1.7323                 1.0967                 1.3991
 IR Inten    --      0.4152                 3.1204                 6.5197

                     40                     41                     42
                      A                      A                      A
 Frequencies --   1229.5514              1309.3151              1344.3634
 Red. masses --      2.6974                 1.5244                 3.0663
 Frc consts  --      2.4026                 1.5397                 3.2651
 IR Inten    --      3.4538                 0.7361                48.8485

                     43                     44                     45
                      A                      A                      A
 Frequencies --   1345.6525              1351.3662              1369.4242
 Red. masses --      1.1641                 1.4103                 1.1107
 Frc consts  --      1.2420                 1.5174                 1.2272
 IR Inten    --      0.2230                 0.1104                 0.0683

                     46                     47                     48
                      A                      A                      A
 Frequencies --   1412.4088              1455.3062              1461.9551
 Red. masses --      1.6088                 2.1306                 1.3232
 Frc consts  --      1.8909                 2.6586                 1.6663
 IR Inten    --      1.7045                 2.7347                 0.4256

                     49                     50                     51
                      A                      A                      A
 Frequencies --   1494.4660              1503.2408              1602.3570
 Red. masses --      1.5414                 2.6630                 6.4893
 Frc consts  --      2.0283                 3.5455                 9.8168
 IR Inten    --      0.0791                 3.7001                 9.3444

                     52                     53                     54
                      A                      A                      A
 Frequencies --   1615.9902              1624.0088              1656.2710
 Red. masses --      6.1418                 8.4047                 5.6188
 Frc consts  --      9.4499                13.0601                 9.0815
 IR Inten    --      0.2272                20.8972                 0.3561

                     55                     56                     57
                      A                      A                      A
 Frequencies --   1713.6556              1759.1923              3114.8482
 Red. masses --      6.2590                 9.0356                 1.0806
 Frc consts  --     10.8293                16.4753                 6.1770
 IR Inten    --      4.8666                26.0019                 0.9419

                     58                     59                     60
                      A                      A                      A
 Frequencies --   3125.2527              3132.8725              3139.9809
 Red. masses --      1.0828                 1.0860                 1.0870
 Frc consts  --      6.2312                 6.2803                 6.3145
 IR Inten    --      2.8307                 0.1226                24.6460

                     61                     62                     63
                      A                      A                      A
 Frequencies --   3151.5589              3158.4288              3170.4621
 Red. masses --      1.0901                 1.0908                 1.0846
 Frc consts  --      6.3790                 6.4115                 6.4232
 IR Inten    --     57.4211                42.3824                 0.0551

                     64                     65                     66
                      A                      A                      A
 Frequencies --   3181.6270              3192.1277              3198.4513
 Red. masses --      1.0877                 1.0937                 1.0968
 Frc consts  --      6.4874                 6.5663                 6.6107
 IR Inten    --      2.2540                21.9866                27.7122

 - Thermochemistry -
 -------------------
 Temperature   298.150 Kelvin.  Pressure   1.00000 Atm.
 Atom     1 has atomic number  6 and mass  12.00000

 Molecular mass:   178.07825 amu.
 Principal axes and moments of inertia in atomic units:
                           1         2         3
     Eigenvalues --  1055.174833867.872634923.01397
           X            1.00000   0.00000   0.00001
           Y           -0.00000   1.00000   0.00007
           Z           -0.00001  -0.00007   1.00000
 This molecule is an asymmetric top.
 Rotational symmetry number  1.
 Warning -- assumption of classical behavior for rotation
           may cause significant error
 Rotational temperatures (Kelvin)      0.08208     0.02239     0.01759
 Rotational constants (GHZ):           1.71037     0.46660     0.36659
 Zero-point vibrational energy     502694.1 (Joules/Mol)
                                  120.14677 (Kcal/Mol)
 Warning -- explicit consideration of  14 degrees of freedom as
           vibrations may cause significant error
 Vibrational temperatures:     57.44   126.08   235.96   277.08   288.01
          (Kelvin)            394.40   494.79   519.00   621.26   660.80
                              661.69   712.45   791.81   852.84   945.01
                              985.72   988.07  1026.61  1046.85  1109.68
                             1150.41  1175.66  1189.18  1191.96  1278.11
                             1296.95  1321.21  1344.99  1347.29  1390.05
                             1406.00  1417.66  1418.66  1438.88  1464.73
                             1571.16  1603.73  1678.30  1697.04  1769.05
                             1883.81  1934.24  1936.09  1944.31  1970.30
                             2032.14  2093.86  2103.43  2150.20  2162.83
                             2305.43  2325.05  2336.59  2383.00  2465.57
                             2531.09  4481.57  4496.54  4507.50  4517.73
                             4534.39  4544.27  4561.59  4577.65  4592.76
                             4601.86

 Zero-point correction=                           0.191466 (Hartree/Particle)
 Thermal correction to Energy=                    0.201846
 Thermal correction to Enthalpy=                  0.202790
 Thermal correction to Gibbs Free Energy=         0.154865
 Sum of electronic and zero-point Energies=           -539.245741
 Sum of electronic and thermal Energies=              -539.235360
 Sum of electronic and thermal Enthalpies=            -539.234416
 Sum of electronic and thermal Free Energies=         -539.282342

                     E (Thermal)             CV                S
                      KCal/Mol        Cal/Mol-Kelvin    Cal/Mol-Kelvin
 Total                  126.660             42.508            100.868
 Electronic               0.000              0.000              0.000
 Translational            0.889              2.981             41.438
 Rotational               0.889              2.981             31.375
 Vibrational            124.883             36.546             28.055
 Vibration     1          0.594              1.981              5.263
 Vibration     2          0.601              1.958              3.712
 Vibration     3          0.623              1.887              2.503
 Vibration     4          0.635              1.850              2.203
 Vibration     5          0.638              1.840              2.131
 Vibration     6          0.676              1.721              1.570
 Vibration     7          0.723              1.588              1.194
 Vibration     8          0.735              1.553              1.119
 Vibration     9          0.793              1.401              0.853
 Vibration    10          0.817              1.340              0.768
 Vibration    11          0.818              1.339              0.766
 Vibration    12          0.851              1.261              0.670
 Vibration    13          0.906              1.139              0.543
 Vibration    14          0.950              1.047              0.462

                           ! Non-Optimized Parameters !
 Normal termination of Gaussian 16 at Sat May 20 16:32:53 2023.
