 Gaussian 16, Revision A.03,
 Gaussian 16:  ES64L-G16RevA.03 25-Dec-2016

 -----------------------------
 # opt freq b3lyp/6-31g(2df,p)
 -----------------------------

 -------------------
 Title Card Required
 -------------------
 Symbolic Z-matrix:
 Charge =  0 Multiplicity = 1

 SCF Done:  E(RB3LYP) =  -1195.68710742     A.U. after   23 cycles
 SCF Done:  E(RB3LYP) =  -1195.73702711     A.U. after   16 cycles
 SCF Done:  E(RB3LYP) =  -1195.78085758     A.U. after   15 cycles
 SCF Done:  E(RB3LYP) =  -1195.80227670     A.U. after   15 cycles
 SCF Done:  E(RB3LYP) =  -1195.80844797     A.U. after   15 cycles
 SCF Done:  E(RB3LYP) =  -1195.81744775     A.U. after   15 cycles
 SCF Done:  E(RB3LYP) =  -1195.81957705     A.U. after   14 cycles
 SCF Done:  E(RB3LYP) =  -1195.81880139     A.U. after   14 cycles
 SCF Done:  E(RB3LYP) =  -1195.82052317     A.U. after   13 cycles
 SCF Done:  E(RB3LYP) =  -1195.82085719     A.U. after   13 cycles
 SCF Done:  E(RB3LYP) =  -1195.82110723     A.U. after   12 cycles
 SCF Done:  E(RB3LYP) =  -1195.82114341     A.U. after   12 cycles
 SCF Done:  E(RB3LYP) =  -1195.82118104     A.U. after   12 cycles
 SCF Done:  E(RB3LYP) =  -1195.82121679     A.U. after   12 cycles
 SCF Done:  E(RB3LYP) =  -1195.82125240     A.U. after   12 cycles
 SCF Done:  E(RB3LYP) =  -1195.82127890     A.U. after   12 cycles
 SCF Done:  E(RB3LYP) =  -1195.82129060     A.U. after   11 cycles
 SCF Done:  E(RB3LYP) =  -1195.82129281     A.U. after    9 cycles
 SCF Done:  E(RB3LYP) =  -1195.82129324     A.U. after    8 cycles
 Optimization completed.
    -- Stationary point found.

 The electronic state is 1-A.
 Alpha  occ. eigenvalues --  -88.96126 -14.39119 -14.34973 -14.34145 -14.31826
 Alpha  occ. eigenvalues --  -10.28439 -10.25045 -10.24606 -10.23006 -10.22592
 Alpha  occ. eigenvalues --  -10.21055 -10.20916 -10.20504 -10.20446 -10.19753
 Alpha  occ. eigenvalues --  -10.19615 -10.19535 -10.19411 -10.18812 -10.18621
 Alpha  occ. eigenvalues --   -8.01411  -5.97897  -5.97572  -5.97164  -1.00260
 Alpha  occ. eigenvalues --   -0.94174  -0.93222  -0.91214  -0.85120  -0.83291
 Alpha  occ. eigenvalues --   -0.80979  -0.78819  -0.75863  -0.73010  -0.70205
 Alpha  occ. eigenvalues --   -0.66927  -0.66057  -0.63963  -0.61811  -0.59696
 Alpha  occ. eigenvalues --   -0.57649  -0.55583  -0.54450  -0.51913  -0.50895
 Alpha  occ. eigenvalues --   -0.50566  -0.49035  -0.47521  -0.46354  -0.45852
 Alpha  occ. eigenvalues --   -0.44613  -0.44253  -0.42867  -0.41617  -0.41172
 Alpha  occ. eigenvalues --   -0.40873  -0.39902  -0.39280  -0.39137  -0.38213
 Alpha  occ. eigenvalues --   -0.35291  -0.34203  -0.33573  -0.32326  -0.30871
 Alpha  occ. eigenvalues --   -0.30049  -0.29108  -0.26671  -0.26195  -0.25072
 Alpha  occ. eigenvalues --   -0.21359  -0.20932  -0.18342
 Alpha virt. eigenvalues --   -0.09173  -0.08250  -0.04229  -0.01587  -0.00617
 Alpha virt. eigenvalues --    0.02284   0.04336   0.06946   0.07376   0.08661
 Alpha virt. eigenvalues --    0.09932   0.10858   0.11035   0.11743   0.12212

 Mulliken charges:
               1
     1  C   -0.137920
     2  C   -0.176600
     3  C   -0.151467
     4  C    0.136327
     5  C   -0.141352
     6  C   -0.031610
     7  N   -0.283133
     8  C   -0.004902
     9  C    0.108928
    10  C   -0.091802
    11  N   -0.283811
    12  C    0.047783
    13  N   -0.313834
    14  C    0.243473
    15  C   -0.206305
    16  C   -0.090344
    17  C   -0.150437
    18  C    0.318391
    19  N   -0.427689
    20  S    0.071271
    21  H    0.114373
    22  H    0.097317
    23  H    0.098868
    24  H    0.105929
    25  H    0.102613
    26  H    0.125710
    27  H    0.276580
    28  H    0.120983
    29  H    0.105203
    30  H    0.113285
    31  H    0.117250
    32  H    0.186922
 Sum of Mulliken charges =  -0.00000

 Dipole moment (field-independent basis, Debye):
    X=             -2.5456    Y=             -2.5265    Z=              0.8237  Tot=              3.6799
 Quadrupole moment (field-independent basis, Debye-Ang):
   XX=           -132.6550   YY=           -114.1737   ZZ=           -122.6465
   XY=             11.3872   XZ=              3.0156   YZ=              3.9677

 Normal termination of Gaussian 16 at Mon May 15 22:38:06 2023.

 ----------------------------------------------------------------------
 #N Geom=AllCheck Guess=TCheck SCRF=Check GenChk RB3LYP/6-31G(2df,p) Fr
 eq
 ----------------------------------------------------------------------

 Structure from the checkpoint file:  "C1dCCdc2ccncc2dCNCdNC2dCCdCC2dN[SH]d1.chk"
 -------------------
 Title Card Required
 -------------------
 Charge =  0 Multiplicity = 1

                         Standard orientation:
 ---------------------------------------------------------------------
 Center     Atomic      Atomic             Coordinates (Angstroms)
 Number     Number       Type             X           Y           Z
 ---------------------------------------------------------------------
      1          6           0       -0.271594    2.293071    0.177557
      2          6           0        0.670605    1.407773   -0.187512
      3          6           0        2.065236    1.557674    0.139876
      4          6           0        3.054662    0.601010    0.119215
      5          6           0        4.429887    1.025748    0.292606
      6          6           0        5.465846    0.224356   -0.039236
      7          7           0        5.320439   -1.056782   -0.562968
      8          6           0        4.122555   -1.531301   -0.602453
      9          6           0        2.916875   -0.848445   -0.145351
     10          6           0        1.836971   -1.654562    0.080380
     11          7           0        0.692872   -1.297415    0.768487
     12          6           0       -0.577871   -1.590575    0.333990
     13          7           0       -1.530554   -0.778222    0.593418
     14          6           0       -2.821083   -0.994524    0.192346
     15          6           0       -3.596760   -2.105975    0.176163
     16          6           0       -4.963316   -1.741112   -0.235964
     17          6           0       -5.050963   -0.413572   -0.439960
     18          6           0       -3.709462    0.177243   -0.191846
     19          7           0       -3.506282    1.429822   -0.282476
     20         16           0       -1.921103    2.409881   -0.140734
     21          1           0        0.386745    0.502382   -0.712686
     22          1           0        2.371055    2.555421    0.447093
     23          1           0        4.614108    2.040607    0.630913
     24          1           0        6.491581    0.565004    0.056693
     25          1           0        4.000970   -2.549521   -0.978216
     26          1           0        1.860265   -2.685732   -0.263177
     27          1           0        0.732508   -0.411135    1.259213
     28          1           0       -0.671738   -2.494554   -0.277255
     29          1           0       -3.293338   -3.097047    0.485993
     30          1           0       -5.765743   -2.459646   -0.345662
     31          1           0       -5.899754    0.170085   -0.760873
     32          1           0       -2.353867    2.783349    1.075605
 ---------------------------------------------------------------------

 SCF Done:  E(RB3LYP) =  -1195.82129324     A.U. after    1 cycles
