 Gaussian 16, Revision A.03,
 Gaussian 16:  ES64L-G16RevA.03 25-Dec-2016

 -----------------------------
 # opt freq b3lyp/6-31g(2df,p)
 -----------------------------

 -------------------
 Title Card Required
 -------------------
 Symbolic Z-matrix:
 Charge =  0 Multiplicity = 1

 SCF Done:  E(RB3LYP) =  -954.452315618     A.U. after   25 cycles
 SCF Done:  E(RB3LYP) =  -954.537728644     A.U. after   16 cycles
 SCF Done:  E(RB3LYP) =  -954.632637308     A.U. after   15 cycles
 SCF Done:  E(RB3LYP) =  -954.718751665     A.U. after   15 cycles
 SCF Done:  E(RB3LYP) =  -954.793261435     A.U. after   15 cycles
 SCF Done:  E(RB3LYP) =  -954.824107236     A.U. after   14 cycles
 SCF Done:  E(RB3LYP) =  -954.839035251     A.U. after   14 cycles
 SCF Done:  E(RB3LYP) =  -954.846069507     A.U. after   14 cycles
 SCF Done:  E(RB3LYP) =  -954.850520356     A.U. after   14 cycles
 SCF Done:  E(RB3LYP) =  -954.852586949     A.U. after   13 cycles
 SCF Done:  E(RB3LYP) =  -954.858161059     A.U. after   14 cycles
 SCF Done:  E(RB3LYP) =  -954.858789919     A.U. after   13 cycles
 SCF Done:  E(RB3LYP) =  -954.858934672     A.U. after   13 cycles
 SCF Done:  E(RB3LYP) =  -954.859096551     A.U. after   12 cycles
 SCF Done:  E(RB3LYP) =  -954.859141416     A.U. after   12 cycles
 SCF Done:  E(RB3LYP) =  -954.859163756     A.U. after   11 cycles
 SCF Done:  E(RB3LYP) =  -954.859176105     A.U. after   10 cycles
 SCF Done:  E(RB3LYP) =  -954.859182879     A.U. after   11 cycles
 SCF Done:  E(RB3LYP) =  -954.859184108     A.U. after    8 cycles
 Optimization completed.
    -- Stationary point found.
 Normal termination of Gaussian 16 at Thu May 18 03:06:19 2023.

 ----------------------------------------------------------------------
 #N Geom=AllCheck Guess=TCheck SCRF=Check GenChk RB3LYP/6-31G(2df,p) Fr
 eq
 ----------------------------------------------------------------------

 Structure from the checkpoint file:  "C1dCCdCSC2dCCdCC2dCNdCCdC1.chk"
 -------------------
 Title Card Required
 -------------------
 Charge =  0 Multiplicity = 1

                         Standard orientation:
 ---------------------------------------------------------------------
 Center     Atomic      Atomic             Coordinates (Angstroms)
 Number     Number       Type             X           Y           Z
 ---------------------------------------------------------------------
      1          6           0        3.526165   -0.512599   -0.895664
      2          6           0        2.456139   -1.342490   -0.988537
      3          6           0        1.412499   -1.428529   -0.008772
      4          6           0        0.157747   -1.838090   -0.272469
      5         16           0       -1.123548   -1.685807    0.929673
      6          6           0       -2.099950   -0.447203    0.143524
      7          6           0       -3.449878   -0.558302   -0.038298
      8          6           0       -3.980319    0.711968   -0.495945
      9          6           0       -2.957845    1.603743   -0.587324
     10          6           0       -1.716080    0.940834   -0.207093
     11          6           0       -0.534740    1.629802   -0.188043
     12          7           0        0.717612    1.140920    0.009705
     13          6           0        1.627253    1.761812    0.679653
     14          6           0        3.025270    1.410531    0.755417
     15          6           0        3.803474    0.512631    0.077220
     16          1           0        4.315758   -0.641181   -1.634432
     17          1           0        2.382450   -1.984646   -1.863548
     18          1           0        1.636091   -1.057917    0.985139
     19          1           0       -0.144589   -2.150943   -1.268361
     20          1           0       -4.030936   -1.449797    0.155610
     21          1           0       -5.019909    0.896960   -0.731573
     22          1           0       -3.007974    2.625858   -0.938530
     23          1           0       -0.607460    2.697854   -0.416962
     24          1           0        1.364490    2.654411    1.264811
     25          1           0        3.575857    2.076146    1.416156
     26          1           0        4.871288    0.655089    0.246972
 ---------------------------------------------------------------------

 SCF Done:  E(RB3LYP) =  -954.859184108     A.U. after    1 cycles

 The electronic state is 1-A.
 Alpha  occ. eigenvalues --  -88.87510 -14.34016 -10.24433 -10.23331 -10.21672
 Alpha  occ. eigenvalues --  -10.21117 -10.20542 -10.20453 -10.20070 -10.19629
 Alpha  occ. eigenvalues --  -10.19482 -10.19163 -10.17347 -10.17204 -10.16971
 Alpha  occ. eigenvalues --   -7.93582  -5.90069  -5.89728  -5.89172  -0.94417
 Alpha  occ. eigenvalues --   -0.85958  -0.83554  -0.80567  -0.77744  -0.74662
 Alpha  occ. eigenvalues --   -0.72431  -0.67815  -0.66443  -0.61851  -0.59396
 Alpha  occ. eigenvalues --   -0.56098  -0.54286  -0.53135  -0.51867  -0.49404
 Alpha  occ. eigenvalues --   -0.49100  -0.47170  -0.45554  -0.43883  -0.41108
 Alpha  occ. eigenvalues --   -0.40619  -0.39569  -0.38237  -0.37597  -0.36743
 Alpha  occ. eigenvalues --   -0.36586  -0.35871  -0.34712  -0.34044  -0.31878
 Alpha  occ. eigenvalues --   -0.30480  -0.25642  -0.24970  -0.23292  -0.21361
 Alpha  occ. eigenvalues --   -0.19134
 Alpha virt. eigenvalues --   -0.09422  -0.05276  -0.00763   0.03851   0.05620
 Alpha virt. eigenvalues --    0.07785   0.08686   0.09417   0.10875   0.11639
 Alpha virt. eigenvalues --    0.12337   0.13277   0.14012   0.14901   0.15744

 Mulliken charges:
               1
     1  C   -0.093534
     2  C   -0.069372
     3  C   -0.034557
     4  C   -0.097583
     5  S   -0.179607
     6  C    0.046130
     7  C   -0.174157
     8  C   -0.136412
     9  C   -0.155859
    10  C    0.175885
    11  C   -0.049337
    12  N   -0.207810
    13  C    0.014761
    14  C   -0.100219
    15  C   -0.087584
    16  H    0.102409
    17  H    0.104406
    18  H    0.118172
    19  H    0.118534
    20  H    0.108491
    21  H    0.096349
    22  H    0.092528
    23  H    0.106093
    24  H    0.094941
    25  H    0.099594
    26  H    0.107740
 Sum of Mulliken charges =  -0.00000

 Dipole moment (field-independent basis, Debye):
    X=              2.8342    Y=              1.7526    Z=             -0.8347  Tot=              3.4352
 Quadrupole moment (field-independent basis, Debye-Ang):
   XX=            -83.0586   YY=            -88.8468   ZZ=            -93.7852
   XY=              0.4755   XZ=              1.3024   YZ=              4.5325

  Exact polarizability: 315.204  10.765 168.858   4.927   8.922 101.735
 Approx polarizability: 587.137  46.576 316.178  12.880  21.513 178.585

                      1                      2                      3
                      A                      A                      A
 Frequencies --     54.4798                69.1136               114.9996
 Red. masses --      4.0598                 5.1604                 5.4805
 Frc consts  --      0.0071                 0.0145                 0.0427
 IR Inten    --      0.7284                 0.3499                 1.1738

                      4                      5                      6
                      A                      A                      A
 Frequencies --    148.8628               182.0416               193.8431
 Red. masses --      3.6625                 4.3612                 5.9464
 Frc consts  --      0.0478                 0.0852                 0.1316
 IR Inten    --      3.1657                 1.1728                 1.2896

                      7                      8                      9
                      A                      A                      A
 Frequencies --    220.7152               245.0950               262.5127
 Red. masses --      3.2569                 3.7428                 4.8723
 Frc consts  --      0.0935                 0.1325                 0.1978
 IR Inten    --      2.4747                 0.2825                 1.4974

                     10                     11                     12
                      A                      A                      A
 Frequencies --    289.6974               336.7740               357.4773
 Red. masses --      4.6015                 4.1997                 3.3754
 Frc consts  --      0.2275                 0.2806                 0.2541
 IR Inten    --     13.2094                 1.4873                 4.3615

                     13                     14                     15
                      A                      A                      A
 Frequencies --    371.2754               382.4038               430.2331
 Red. masses --      3.8193                 4.5953                 3.5127
 Frc consts  --      0.3102                 0.3959                 0.3831
 IR Inten    --      7.2360                 0.1794                 0.9465

                     16                     17                     18
                      A                      A                      A
 Frequencies --    458.8458               523.5394               554.6549
 Red. masses --      4.7223                 5.7740                 3.3582
 Frc consts  --      0.5858                 0.9325                 0.6087
 IR Inten    --      2.5416                 3.7345                11.4826

                     19                     20                     21
                      A                      A                      A
 Frequencies --    591.2692               664.5751               679.6082
 Red. masses --      3.3404                 3.0544                 2.4712
 Frc consts  --      0.6880                 0.7948                 0.6725
 IR Inten    --      1.5573                11.2276                 2.7867

                     22                     23                     24
                      A                      A                      A
 Frequencies --    736.2054               746.8314               766.1072
 Red. masses --      1.8776                 2.8374                 1.6922
 Frc consts  --      0.5996                 0.9324                 0.5852
 IR Inten    --     23.6490                 7.6778                27.7590

                     25                     26                     27
                      A                      A                      A
 Frequencies --    815.6826               827.9068               839.0483
 Red. masses --      2.5063                 2.9730                 3.4519
 Frc consts  --      0.9825                 1.2006                 1.4318
 IR Inten    --     18.9339                 1.8959                 5.3423

                     28                     29                     30
                      A                      A                      A
 Frequencies --    844.8863               856.8287               876.4052
 Red. masses --      2.8388                 1.4055                 2.0149
 Frc consts  --      1.1940                 0.6079                 0.9118
 IR Inten    --     23.7577                 8.8154                15.1733

                     31                     32                     33
                      A                      A                      A
 Frequencies --    906.0440               912.9637               933.5750
 Red. masses --      2.1313                 1.3990                 2.2045
 Frc consts  --      1.0309                 0.6870                 1.1320
 IR Inten    --     12.2558                 2.7930                 8.0263

                     34                     35                     36
                      A                      A                      A
 Frequencies --    976.7407               985.3365              1002.6327
 Red. masses --      1.7732                 1.4658                 1.5073
 Frc consts  --      0.9967                 0.8385                 0.8928
 IR Inten    --     32.1960                15.5950                 5.2596

                     37                     38                     39
                      A                      A                      A
 Frequencies --   1006.4666              1020.3891              1039.3260
 Red. masses --      1.5277                 1.1666                 2.3928
 Frc consts  --      0.9118                 0.7156                 1.5229
 IR Inten    --      2.7706                21.3753                 9.0233

                     40                     41                     42
                      A                      A                      A
 Frequencies --   1068.7721              1111.1795              1141.2333
 Red. masses --      4.1285                 1.1706                 2.5188
 Frc consts  --      2.7785                 0.8516                 1.9329
 IR Inten    --     23.2432                13.4062                 6.1971

                     43                     44                     45
                      A                      A                      A
 Frequencies --   1168.6767              1214.4309              1221.9406
 Red. masses --      2.4575                 2.6176                 1.1530
 Frc consts  --      1.9776                 2.2745                 1.0143
 IR Inten    --      2.7748                22.0559                 6.9904

                     46                     47                     48
                      A                      A                      A
 Frequencies --   1268.7049              1277.9892              1318.0243
 Red. masses --      1.8721                 1.2432                 1.2975
 Frc consts  --      1.7754                 1.1963                 1.3280
 IR Inten    --      1.0930                 6.4050                 8.0710

                     49                     50                     51
                      A                      A                      A
 Frequencies --   1320.9393              1370.6802              1390.5508
 Red. masses --      1.1568                 1.8503                 1.3220
 Frc consts  --      1.1893                 2.0482                 1.5061
 IR Inten    --      3.5601                22.1756                 5.0444

                     52                     53                     54
                      A                      A                      A
 Frequencies --   1420.6260              1434.3490              1469.3332
 Red. masses --      1.5660                 1.6036                 5.7712
 Frc consts  --      1.8621                 1.9438                 7.3410
 IR Inten    --     20.8951                 7.0177               138.1390

                     55                     56                     57
                      A                      A                      A
 Frequencies --   1485.7175              1530.5206              1586.8793
 Red. masses --      1.6615                 6.2760                 5.0543
 Frc consts  --      2.1608                 8.6618                 7.4990
 IR Inten    --     16.3382               110.9862                10.0842

                     58                     59                     60
                      A                      A                      A
 Frequencies --   1611.3502              1641.2197              1657.7285
 Red. masses --      5.9453                 6.6814                 5.1909
 Frc consts  --      9.0950                10.6035                 8.4047
 IR Inten    --      6.6140               179.5282                14.6857

                     61                     62                     63
                      A                      A                      A
 Frequencies --   1671.2663              3012.1668              3065.9196
 Red. masses --      6.2146                 1.0845                 1.0853
 Frc consts  --     10.2272                 5.7976                 6.0107
 IR Inten    --     72.3544                58.9564                33.0121

                     64                     65                     66
                      A                      A                      A
 Frequencies --   3112.7942              3134.1447              3155.9246
 Red. masses --      1.0830                 1.0840                 1.0895
 Frc consts  --      6.1825                 6.2734                 6.3933
 IR Inten    --      6.8277                 8.3144                22.9278

                     67                     68                     69
                      A                      A                      A
 Frequencies --   3158.4306              3160.6575              3193.7665
 Red. masses --      1.0913                 1.0910                 1.0882
 Frc consts  --      6.4141                 6.4212                 6.5400
 IR Inten    --     17.2394                22.2688                 3.5992

                     70                     71                     72
                      A                      A                      A
 Frequencies --   3208.1788              3223.6090              3235.5044
 Red. masses --      1.0859                 1.0948                 1.1034
 Frc consts  --      6.5850                 6.7031                 6.8056
 IR Inten    --      1.5260                11.3677                17.5169

 - Thermochemistry -
 -------------------
 Temperature   298.150 Kelvin.  Pressure   1.00000 Atm.
 Atom     1 has atomic number  6 and mass  12.00000

 Molecular mass:   213.06122 amu.
 Principal axes and moments of inertia in atomic units:
                           1         2         3
     Eigenvalues --  1687.810604784.297185868.77637
           X            0.99999  -0.00324   0.00360
           Y            0.00314   0.99963   0.02716
           Z           -0.00368  -0.02715   0.99962
 This molecule is an asymmetric top.
 Rotational symmetry number  1.
 Warning -- assumption of classical behavior for rotation
           may cause significant error
 Rotational temperatures (Kelvin)      0.05132     0.01810     0.01476
 Rotational constants (GHZ):           1.06928     0.37722     0.30752
 Zero-point vibrational energy     527963.5 (Joules/Mol)
                                  126.18630 (Kcal/Mol)
 Warning -- explicit consideration of  19 degrees of freedom as
           vibrations may cause significant error
 Vibrational temperatures:     78.38    99.44   165.46   214.18   261.92
          (Kelvin)            278.90   317.56   352.64   377.70   416.81
                              484.54   514.33   534.18   550.19   619.01
                              660.18   753.26   798.02   850.70   956.18
                              977.80  1059.24  1074.52  1102.26  1173.59
                             1191.17  1207.20  1215.60  1232.79  1260.95
                             1303.60  1313.55  1343.21  1405.31  1417.68
                             1442.56  1448.08  1468.11  1495.36  1537.72
                             1598.74  1641.98  1681.47  1747.30  1758.10
                             1825.38  1838.74  1896.34  1900.54  1972.10
                             2000.69  2043.96  2063.71  2114.04  2137.62
                             2202.08  2283.17  2318.37  2361.35  2385.10
                             2404.58  4333.84  4411.17  4478.62  4509.34
                             4540.67  4544.28  4547.48  4595.12  4615.85
                             4638.05  4655.17

 Zero-point correction=                           0.201091 (Hartree/Particle)
 Thermal correction to Energy=                    0.214001
 Thermal correction to Enthalpy=                  0.214945
 Thermal correction to Gibbs Free Energy=         0.161769
 Sum of electronic and zero-point Energies=           -954.658093
 Sum of electronic and thermal Energies=              -954.645183
 Sum of electronic and thermal Enthalpies=            -954.644239
 Sum of electronic and thermal Free Energies=         -954.697415

                     E (Thermal)             CV                S
                      KCal/Mol        Cal/Mol-Kelvin    Cal/Mol-Kelvin
 Total                  134.288             50.858            111.920
 Electronic               0.000              0.000              0.000
 Translational            0.889              2.981             41.973
 Rotational               0.889              2.981             32.227
 Vibrational            132.510             44.896             37.720
 Vibration     1          0.596              1.976              4.648
 Vibration     2          0.598              1.969              4.178
 Vibration     3          0.608              1.937              3.183
 Vibration     4          0.618              1.904              2.687
 Vibration     5          0.630              1.864              2.307
 Vibration     6          0.635              1.848              2.191
 Vibration     7          0.647              1.810              1.953
 Vibration     8          0.660              1.771              1.766
 Vibration     9          0.670              1.741              1.645
 Vibration    10          0.686              1.693              1.476
 Vibration    11          0.717              1.602              1.227
 Vibration    12          0.733              1.560              1.133
 Vibration    13          0.743              1.531              1.075
 Vibration    14          0.752              1.508              1.030
 Vibration    15          0.791              1.404              0.858
 Vibration    16          0.817              1.341              0.769
 Vibration    17          0.879              1.198              0.602
 Vibration    18          0.910              1.130              0.535
 Vibration    19          0.949              1.050              0.465

                           ! Non-Optimized Parameters !
 Normal termination of Gaussian 16 at Thu May 18 04:55:08 2023.
