 Gaussian 16, Revision A.03,
 Gaussian 16:  ES64L-G16RevA.03 25-Dec-2016

 -----------------------------
 # opt freq b3lyp/6-31g(2df,p)
 -----------------------------

 -------------------
 Title Card Required
 -------------------
 Symbolic Z-matrix:
 Charge =  0 Multiplicity = 1

 SCF Done:  E(RB3LYP) =  -610.839808137     A.U. after   23 cycles
 SCF Done:  E(RB3LYP) =  -610.948673702     A.U. after   22 cycles
 SCF Done:  E(RB3LYP) =  -611.110035153     A.U. after   21 cycles
 SCF Done:  E(RB3LYP) =  -611.165221851     A.U. after   20 cycles
 SCF Done:  E(RB3LYP) =  -611.305436362     A.U. after   17 cycles
 SCF Done:  E(RB3LYP) =  -611.272101409     A.U. after   18 cycles
 SCF Done:  E(RB3LYP) =  -611.431867624     A.U. after   17 cycles
 SCF Done:  E(RB3LYP) =  -611.461410336     A.U. after   16 cycles
 SCF Done:  E(RB3LYP) =  -611.518166200     A.U. after   15 cycles
 SCF Done:  E(RB3LYP) =  -611.550493531     A.U. after   16 cycles
 SCF Done:  E(RB3LYP) =  -611.821855181     A.U. after   10 cycles
 SCF Done:  E(RB3LYP) =  -611.821890398     A.U. after    9 cycles
 SCF Done:  E(RB3LYP) =  -611.821905067     A.U. after    8 cycles
 SCF Done:  E(RB3LYP) =  -611.821912154     A.U. after    8 cycles
 SCF Done:  E(RB3LYP) =  -611.821918502     A.U. after    8 cycles
 SCF Done:  E(RB3LYP) =  -611.821922323     A.U. after    8 cycles
 SCF Done:  E(RB3LYP) =  -611.821923923     A.U. after    8 cycles
 SCF Done:  E(RB3LYP) =  -611.821925246     A.U. after    8 cycles
 SCF Done:  E(RB3LYP) =  -611.821925920     A.U. after    8 cycles
 Optimization completed.
    -- Stationary point found.
 Normal termination of Gaussian 16 at Sat May 20 09:45:32 2023.

 ----------------------------------------------------------------------
 #N Geom=AllCheck Guess=TCheck SCRF=Check GenChk RB3LYP/6-31G(2df,p) Fr
 eq
 ----------------------------------------------------------------------

 Structure from the checkpoint file:  "C1dCNC2dCN2CdCCC2dCCdCC2dC1.chk"
 -------------------
 Title Card Required
 -------------------
 Charge =  0 Multiplicity = 1

                         Standard orientation:
 ---------------------------------------------------------------------
 Center     Atomic      Atomic             Coordinates (Angstroms)
 Number     Number       Type             X           Y           Z
 ---------------------------------------------------------------------
      1          6           0       -0.267105    2.231558   -0.237180
      2          6           0       -1.040243    1.403628    0.471184
      3          7           0       -2.455835    1.392834    0.489457
      4          6           0       -3.047620    0.194845    0.278269
      5          6           0       -3.909898   -0.642174   -0.206727
      6          7           0       -2.558139   -1.149389    0.442953
      7          6           0       -1.501173   -1.394947   -0.500761
      8          6           0       -0.298870   -1.778996   -0.078683
      9          6           0        0.985107   -1.617389   -0.852642
     10          6           0        1.844884   -0.591236   -0.130671
     11          6           0        2.636971   -0.884462    1.152653
     12          6           0        3.733848   -0.237821    0.738528
     13          6           0        3.114918    0.183568   -0.589961
     14          6           0        1.833510    0.883787   -0.322123
     15          6           0        1.171964    2.032869   -0.436147
     16          1           0       -0.719118    3.056340   -0.785794
     17          1           0       -0.615549    0.586361    1.033376
     18          1           0       -2.933093    2.196194    0.101087
     19          1           0       -4.890446   -1.073955   -0.213448
     20          1           0       -1.692363   -1.098836   -1.536354
     21          1           0       -0.200267   -2.042563    0.973536
     22          1           0        0.775178   -1.285271   -1.874882
     23          1           0        1.549449   -2.557700   -0.915734
     24          1           0        2.325691   -1.298702    2.104488
     25          1           0        4.651044    0.069101    1.226853
     26          1           0        3.574196    0.148642   -1.571386
     27          1           0        1.735343    2.896891   -0.783042
 ---------------------------------------------------------------------

 SCF Done:  E(RB3LYP) =  -611.821925920     A.U. after    1 cycles

 The electronic state is 1-A.
 Alpha  occ. eigenvalues --  -14.38623 -14.33620 -10.26280 -10.22267 -10.20756
 Alpha  occ. eigenvalues --  -10.20093 -10.19788 -10.19646 -10.19231 -10.19067
 Alpha  occ. eigenvalues --  -10.19054 -10.18971 -10.18910 -10.18681 -10.17000
 Alpha  occ. eigenvalues --   -0.99185  -0.93224  -0.91119  -0.80052  -0.78960
 Alpha  occ. eigenvalues --   -0.74215  -0.71766  -0.68821  -0.63327  -0.61064
 Alpha  occ. eigenvalues --   -0.60413  -0.59832  -0.54440  -0.53088  -0.51592
 Alpha  occ. eigenvalues --   -0.51128  -0.49947  -0.47796  -0.46559  -0.44413
 Alpha  occ. eigenvalues --   -0.43601  -0.42037  -0.41172  -0.39516  -0.39345
 Alpha  occ. eigenvalues --   -0.37361  -0.35473  -0.35034  -0.33006  -0.31761
 Alpha  occ. eigenvalues --   -0.31248  -0.29383  -0.27963  -0.23131  -0.22066
 Alpha  occ. eigenvalues --   -0.21260  -0.18409
 Alpha virt. eigenvalues --   -0.02505  -0.00417   0.01182   0.04261   0.07393
 Alpha virt. eigenvalues --    0.07639   0.10209   0.10798   0.12036   0.12280
 Alpha virt. eigenvalues --    0.13735   0.14178   0.14722   0.15437   0.15910

 Mulliken charges:
               1
     1  C   -0.154656
     2  C   -0.004530
     3  N   -0.416713
     4  C    0.369746
     5  C   -0.332012
     6  N   -0.163207
     7  C   -0.001837
     8  C   -0.089799
     9  C   -0.352982
    10  C    0.202280
    11  C   -0.149483
    12  C   -0.098586
    13  C   -0.293754
    14  C    0.355833
    15  C   -0.305334
    16  H    0.083228
    17  H    0.140773
    18  H    0.260696
    19  H    0.163333
    20  H    0.074898
    21  H    0.089435
    22  H    0.103139
    23  H    0.106573
    24  H    0.104171
    25  H    0.108165
    26  H    0.104567
    27  H    0.096057
 Sum of Mulliken charges =  -0.00000

 Dipole moment (field-independent basis, Debye):
    X=             -0.0175    Y=              2.2389    Z=             -1.0424  Tot=              2.4697
 Quadrupole moment (field-independent basis, Debye-Ang):
   XX=            -79.6773   YY=            -84.2533   ZZ=            -86.8955
   XY=             -6.4737   XZ=              1.9305   YZ=             -1.4230

  Exact polarizability: 215.049   0.669 136.510   3.385  -8.644  98.656
 Approx polarizability: 323.779   4.212 228.556   1.836 -16.915 171.470

                      1                      2                      3
                      A                      A                      A
 Frequencies --     76.0835                88.9508               120.6399
 Red. masses --      4.7263                 4.6334                 3.3597
 Frc consts  --      0.0161                 0.0216                 0.0288
 IR Inten    --      1.1095                 3.2756                 2.2493

                      4                      5                      6
                      A                      A                      A
 Frequencies --    142.2997               181.1361               197.1287
 Red. masses --      3.4096                 2.2154                 3.1427
 Frc consts  --      0.0407                 0.0428                 0.0720
 IR Inten    --     27.8453                55.5609                80.0032

                      7                      8                      9
                      A                      A                      A
 Frequencies --    207.1136               240.5118               268.6178
 Red. masses --      2.6357                 2.7938                 2.7858
 Frc consts  --      0.0666                 0.0952                 0.1184
 IR Inten    --     37.9475                 0.1948                 4.9107

                     10                     11                     12
                      A                      A                      A
 Frequencies --    292.2735               326.2824               371.2536
 Red. masses --      2.9946                 2.4583                 4.2893
 Frc consts  --      0.1507                 0.1542                 0.3483
 IR Inten    --      8.8965                 7.1223                 2.7110

                     13                     14                     15
                      A                      A                      A
 Frequencies --    379.0751               402.1983               424.8524
 Red. masses --      4.5851                 3.5790                 3.2307
 Frc consts  --      0.3882                 0.3411                 0.3436
 IR Inten    --      2.3522                 2.9096                10.3267

                     16                     17                     18
                      A                      A                      A
 Frequencies --    466.1720               516.5147               526.0341
 Red. masses --      3.8454                 3.1484                 3.2050
 Frc consts  --      0.4924                 0.4949                 0.5225
 IR Inten    --     21.5060                 4.7733                 2.1461

                     19                     20                     21
                      A                      A                      A
 Frequencies --    578.4500               608.9128               618.4863
 Red. masses --      3.4399                 2.5870                 4.1861
 Frc consts  --      0.6782                 0.5651                 0.9435
 IR Inten    --      3.0952                 2.5111                46.8996

                     22                     23                     24
                      A                      A                      A
 Frequencies --    645.8954               651.4466               703.1497
 Red. masses --      1.8189                 3.7961                 3.0919
 Frc consts  --      0.4471                 0.9492                 0.9007
 IR Inten    --     76.6920                10.1429                 2.6598

                     25                     26                     27
                      A                      A                      A
 Frequencies --    776.7286               791.9661               824.8641
 Red. masses --      1.9441                 2.7227                 2.6288
 Frc consts  --      0.6911                 1.0061                 1.0538
 IR Inten    --     32.0410                10.7753                 2.8309

                     28                     29                     30
                      A                      A                      A
 Frequencies --    834.9235               850.2664               883.2366
 Red. masses --      1.6616                 2.1372                 1.7870
 Frc consts  --      0.6824                 0.9104                 0.8213
 IR Inten    --     20.1216                11.7185                21.2037

                     31                     32                     33
                      A                      A                      A
 Frequencies --    899.4591               919.0078               929.0732
 Red. masses --      1.7354                 1.7397                 1.5602
 Frc consts  --      0.8272                 0.8657                 0.7935
 IR Inten    --      8.3739                11.0276                 6.0270

                     34                     35                     36
                      A                      A                      A
 Frequencies --    950.7893               960.7355               967.9252
 Red. masses --      2.1266                 2.5707                 2.1351
 Frc consts  --      1.1327                 1.3980                 1.1785
 IR Inten    --      5.3706                16.3337                 2.0257

                     37                     38                     39
                      A                      A                      A
 Frequencies --    984.7800               997.5904              1008.6062
 Red. masses --      1.3605                 1.6199                 1.8061
 Frc consts  --      0.7774                 0.9498                 1.0825
 IR Inten    --     36.7687                 1.8915                21.0157

                     40                     41                     42
                      A                      A                      A
 Frequencies --   1020.6840              1081.8888              1088.9780
 Red. masses --      1.4989                 4.8028                 1.9501
 Frc consts  --      0.9200                 3.3122                 1.3625
 IR Inten    --     19.8069                19.3300                 1.0572

                     43                     44                     45
                      A                      A                      A
 Frequencies --   1106.1423              1131.7089              1174.8547
 Red. masses --      1.6901                 2.5293                 4.0804
 Frc consts  --      1.2184                 1.9086                 3.3183
 IR Inten    --      0.0982                12.2883                44.1391

                     46                     47                     48
                      A                      A                      A
 Frequencies --   1183.8771              1194.1850              1225.2257
 Red. masses --      3.5155                 1.5866                 1.6422
 Frc consts  --      2.9030                 1.3331                 1.4525
 IR Inten    --     75.1671                14.1934                 1.2139

                     49                     50                     51
                      A                      A                      A
 Frequencies --   1250.1759              1286.0003              1292.8853
 Red. masses --      1.8210                 1.2707                 1.8450
 Frc consts  --      1.6769                 1.2382                 1.8170
 IR Inten    --     14.7400                 5.3791                 5.7593

                     52                     53                     54
                      A                      A                      A
 Frequencies --   1302.8167              1314.4898              1334.9319
 Red. masses --      1.3941                 1.2860                 1.4368
 Frc consts  --      1.3942                 1.3092                 1.5085
 IR Inten    --      4.5282                 0.4817                 1.7105

                     55                     56                     57
                      A                      A                      A
 Frequencies --   1344.1355              1383.4391              1454.0740
 Red. masses --      1.2853                 1.7969                 1.4174
 Frc consts  --      1.3681                 2.0262                 1.7657
 IR Inten    --     16.8218                 2.3160                17.9234

                     58                     59                     60
                      A                      A                      A
 Frequencies --   1473.2922              1611.0817              1709.3834
 Red. masses --      1.0963                 5.8854                 5.4176
 Frc consts  --      1.4021                 9.0003                 9.3269
 IR Inten    --      4.0819                 9.1793               109.1759

                     61                     62                     63
                      A                      A                      A
 Frequencies --   1720.2719              1775.1717              1887.4601
 Red. masses --      6.3576                 9.0143                 7.6815
 Frc consts  --     11.0851                16.7364                16.1231
 IR Inten    --     28.5848                16.1955               333.7135

                     64                     65                     66
                      A                      A                      A
 Frequencies --   3008.6225              3071.9529              3079.5402
 Red. masses --      1.0639                 1.0969                 1.0901
 Frc consts  --      5.6739                 6.0987                 6.0907
 IR Inten    --     39.6256                 9.2232                29.5038

                     67                     68                     69
                      A                      A                      A
 Frequencies --   3130.6763              3138.5853              3144.9285
 Red. masses --      1.0857                 1.0872                 1.0896
 Frc consts  --      6.2694                 6.3101                 6.3496
 IR Inten    --     24.4753                 9.2815                23.2443

                     70                     71                     72
                      A                      A                      A
 Frequencies --   3177.5977              3184.5608              3214.6851
 Red. masses --      1.0852                 1.0881                 1.1148
 Frc consts  --      6.4560                 6.5017                 6.7880
 IR Inten    --      4.1655                18.8964                31.5403

                     73                     74                     75
                      A                      A                      A
 Frequencies --   3258.4775              3344.4612              3575.3633
 Red. masses --      1.0894                 1.1150                 1.0748
 Frc consts  --      6.8150                 7.3480                 8.0949
 IR Inten    --      4.9909                34.8285                21.5312

 - Thermochemistry -
 -------------------
 Temperature   298.150 Kelvin.  Pressure   1.00000 Atm.
 Atom     1 has atomic number  6 and mass  12.00000

 Molecular mass:   196.10005 amu.
 Principal axes and moments of inertia in atomic units:
                           1         2         3
     Eigenvalues --  1471.497384084.561075044.70080
           X            0.99998  -0.00482   0.00380
           Y            0.00485   0.99996  -0.00757
           Z           -0.00376   0.00759   0.99996
 This molecule is an asymmetric top.
 Rotational symmetry number  1.
 Warning -- assumption of classical behavior for rotation
           may cause significant error
 Rotational temperatures (Kelvin)      0.05886     0.02121     0.01717
 Rotational constants (GHZ):           1.22647     0.44184     0.35775
 Zero-point vibrational energy     557998.3 (Joules/Mol)
                                  133.36480 (Kcal/Mol)
 Warning -- explicit consideration of  21 degrees of freedom as
           vibrations may cause significant error
 Vibrational temperatures:    109.47   127.98   173.57   204.74   260.61
          (Kelvin)            283.62   297.99   346.04   386.48   420.52
                              469.45   534.15   545.40   578.67   611.27
                              670.72   743.15   756.85   832.26   876.09
                              889.86   929.30   937.29  1011.68  1117.54
                             1139.46  1186.80  1201.27  1223.34  1270.78
                             1294.12  1322.25  1336.73  1367.97  1382.28
                             1392.63  1416.88  1435.31  1451.16  1468.54
                             1556.60  1566.80  1591.49  1628.28  1690.35
                             1703.34  1718.17  1762.83  1798.72  1850.27
                             1860.17  1874.46  1891.26  1920.67  1933.91
                             1990.46  2092.09  2119.74  2317.99  2459.42
                             2475.09  2554.08  2715.63  4328.74  4419.86
                             4430.77  4504.34  4515.72  4524.85  4571.85
                             4581.87  4625.21  4688.22  4811.93  5144.15

 Zero-point correction=                           0.212530 (Hartree/Particle)
 Thermal correction to Energy=                    0.225658
 Thermal correction to Enthalpy=                  0.226602
 Thermal correction to Gibbs Free Energy=         0.173894
 Sum of electronic and zero-point Energies=           -611.609396
 Sum of electronic and thermal Energies=              -611.596268
 Sum of electronic and thermal Enthalpies=            -611.595324
 Sum of electronic and thermal Free Energies=         -611.648032

                     E (Thermal)             CV                S
                      KCal/Mol        Cal/Mol-Kelvin    Cal/Mol-Kelvin
 Total                  141.603             52.798            110.933
 Electronic               0.000              0.000              0.000
 Translational            0.889              2.981             41.725
 Rotational               0.889              2.981             31.784
 Vibrational            139.825             46.836             37.424
 Vibration     1          0.599              1.965              3.989
 Vibration     2          0.602              1.957              3.683
 Vibration     3          0.609              1.932              3.090
 Vibration     4          0.616              1.911              2.773
 Vibration     5          0.630              1.865              2.317
 Vibration     6          0.637              1.844              2.160
 Vibration     7          0.641              1.830              2.069
 Vibration     8          0.658              1.778              1.799
 Vibration     9          0.673              1.731              1.605
 Vibration    10          0.688              1.688              1.461
 Vibration    11          0.710              1.623              1.278
 Vibration    12          0.743              1.531              1.075
 Vibration    13          0.749              1.515              1.043
 Vibration    14          0.768              1.465              0.955
 Vibration    15          0.787              1.416              0.876
 Vibration    16          0.824              1.325              0.748
 Vibration    17          0.872              1.213              0.618
 Vibration    18          0.881              1.192              0.596
 Vibration    19          0.935              1.078              0.488
 Vibration    20          0.968              1.013              0.435
 Vibration    21          0.978              0.993              0.419

                           ! Non-Optimized Parameters !
 Normal termination of Gaussian 16 at Sat May 20 11:54:10 2023.
