 Gaussian 16, Revision A.03,
 Gaussian 16:  ES64L-G16RevA.03 25-Dec-2016

 -----------------------------
 # opt freq b3lyp/6-31g(2df,p)
 -----------------------------

 -------------------
 Title Card Required
 -------------------
 Symbolic Z-matrix:
 Charge =  0 Multiplicity = 1

 SCF Done:  E(RB3LYP) =  -3112.70976154     A.U. after   29 cycles
 SCF Done:  E(RB3LYP) =  -3112.78141215     A.U. after   17 cycles
 SCF Done:  E(RB3LYP) =  -3112.84090599     A.U. after   17 cycles
 SCF Done:  E(RB3LYP) =  -3112.88560535     A.U. after   15 cycles
 SCF Done:  E(RB3LYP) =  -3112.93513158     A.U. after   17 cycles
 SCF Done:  E(RB3LYP) =  -3112.95781823     A.U. after   15 cycles
 SCF Done:  E(RB3LYP) =  -3112.97195196     A.U. after   15 cycles
 SCF Done:  E(RB3LYP) =  -3112.97614534     A.U. after   14 cycles
 SCF Done:  E(RB3LYP) =  -3112.97896976     A.U. after   15 cycles
 SCF Done:  E(RB3LYP) =  -3112.97998328     A.U. after   14 cycles
 SCF Done:  E(RB3LYP) =  -3112.98161503     A.U. after   12 cycles
 SCF Done:  E(RB3LYP) =  -3112.98162960     A.U. after   12 cycles
 SCF Done:  E(RB3LYP) =  -3112.98164163     A.U. after   11 cycles
 SCF Done:  E(RB3LYP) =  -3112.98164401     A.U. after    9 cycles
 SCF Done:  E(RB3LYP) =  -3112.98164755     A.U. after   11 cycles
 SCF Done:  E(RB3LYP) =  -3112.98164919     A.U. after   10 cycles
 SCF Done:  E(RB3LYP) =  -3112.98165002     A.U. after    9 cycles
 SCF Done:  E(RB3LYP) =  -3112.98165031     A.U. after    8 cycles
 SCF Done:  E(RB3LYP) =  -3112.98165043     A.U. after    8 cycles
 Optimization completed.
    -- Stationary point found.
 Normal termination of Gaussian 16 at Wed May 17 17:31:52 2023.

 ----------------------------------------------------------------------
 #N Geom=AllCheck Guess=TCheck SCRF=Check GenChk RB3LYP/6-31G(2df,p) Fr
 eq
 ----------------------------------------------------------------------

 Structure from the checkpoint file:  "C1dCSSS2dCqSCdC2rSSCdCSN1.chk"
 -------------------
 Title Card Required
 -------------------
 Charge =  0 Multiplicity = 1

                         Standard orientation:
 ---------------------------------------------------------------------
 Center     Atomic      Atomic             Coordinates (Angstroms)
 Number     Number       Type             X           Y           Z
 ---------------------------------------------------------------------
      1          6           0       -2.027517   -2.211697   -0.701302
      2          6           0       -0.967869   -1.863430    0.042415
      3         16           0        0.573787   -2.720485   -0.019215
      4         16           0        1.581949   -2.031825    1.588938
      5         16           0        2.607081    0.244665    0.630851
      6          6           0        1.604661    1.427194   -0.109482
      7         16           0        1.331423    1.182430   -1.826053
      8          6           0        2.500187   -0.070679   -1.981069
      9          6           0        3.113048   -0.491427   -0.854197
     10         16           0        0.764268    2.629197    0.769399
     11         16           0       -1.211559    1.854562    1.261796
     12          6           0       -1.976876    1.952023   -0.316360
     13          6           0       -2.915395    1.112983   -0.782927
     14         16           0       -3.629156   -0.181022    0.190097
     15          7           0       -3.266674   -1.578482   -0.692721
     16          1           0       -1.990425   -3.058654   -1.381973
     17          1           0       -0.997712   -1.029482    0.733156
     18          1           0        2.687036   -0.483333   -2.964113
     19          1           0        3.832402   -1.295816   -0.796053
     20          1           0       -1.647871    2.787393   -0.929889
     21          1           0       -3.323216    1.259553   -1.779497
     22          1           0       -3.959625   -1.900439   -1.348051
 ---------------------------------------------------------------------

 SCF Done:  E(RB3LYP) =  -3112.98165043     A.U. after    1 cycles

 The electronic state is 1-A.
 Alpha  occ. eigenvalues --  -88.96172 -88.93629 -88.91588 -88.91183 -88.90108
 Alpha  occ. eigenvalues --  -88.89934 -88.85505 -14.37548 -10.26885 -10.25703
 Alpha  occ. eigenvalues --  -10.24836 -10.23275 -10.22996 -10.21891 -10.19352
 Alpha  occ. eigenvalues --   -8.01868  -7.99758  -7.97308  -7.97239  -7.96145
 Alpha  occ. eigenvalues --   -7.96096  -7.91994  -5.98212  -5.97948  -5.97720
 Alpha  occ. eigenvalues --   -5.96180  -5.95799  -5.95490  -5.93947  -5.93750
 Alpha  occ. eigenvalues --   -5.93432  -5.93388  -5.92814  -5.92754  -5.92587
 Alpha  occ. eigenvalues --   -5.92532  -5.92281  -5.92173  -5.91793  -5.91707
 Alpha  occ. eigenvalues --   -5.88473  -5.88022  -5.87545  -0.94680  -0.91533
 Alpha  occ. eigenvalues --   -0.83543  -0.81161  -0.80311  -0.79575  -0.75831
 Alpha  occ. eigenvalues --   -0.73145  -0.70688  -0.67034  -0.61745  -0.59871
 Alpha  occ. eigenvalues --   -0.57265  -0.56460  -0.53663  -0.52574  -0.51855
 Alpha  occ. eigenvalues --   -0.49241  -0.46209  -0.43744  -0.43550  -0.42487
 Alpha  occ. eigenvalues --   -0.41785  -0.41347  -0.40137  -0.38653  -0.37270
 Alpha  occ. eigenvalues --   -0.36583  -0.36192  -0.33412  -0.32611  -0.32194
 Alpha  occ. eigenvalues --   -0.31167  -0.29411  -0.28091  -0.26890  -0.25043
 Alpha  occ. eigenvalues --   -0.23518  -0.22691  -0.21568  -0.17388
 Alpha virt. eigenvalues --   -0.09988  -0.03845  -0.03013  -0.02608  -0.01780
 Alpha virt. eigenvalues --   -0.00310   0.02069   0.03544   0.03662   0.04516
 Alpha virt. eigenvalues --    0.05348   0.06441   0.07588   0.07693   0.09040

 Mulliken charges:
               1
     1  C   -0.005610
     2  C   -0.144331
     3  S   -0.033524
     4  S   -0.285813
     5  S    0.160038
     6  C    0.045197
     7  S    0.025721
     8  C   -0.091920
     9  C   -0.099521
    10  S   -0.135381
    11  S   -0.058530
    12  C   -0.065642
    13  C   -0.107826
    14  S   -0.060543
    15  N   -0.273991
    16  H    0.117462
    17  H    0.168503
    18  H    0.156714
    19  H    0.164205
    20  H    0.141364
    21  H    0.120407
    22  H    0.263022
 Sum of Mulliken charges =  -0.00000

 Dipole moment (field-independent basis, Debye):
    X=              0.1122    Y=              0.2447    Z=             -5.6847  Tot=              5.6911
 Quadrupole moment (field-independent basis, Debye-Ang):
   XX=           -122.8157   YY=           -141.6172   ZZ=           -131.5459
   XY=              3.7105   XZ=              2.1268   YZ=              6.2234

  Exact polarizability: 275.195   6.964 279.337  12.573  -9.093 186.637
 Approx polarizability: 526.011  38.364 757.057  56.041 -71.542 425.313

                      1                      2                      3
                      A                      A                      A
 Frequencies --     25.6567                47.8975                57.6686
 Red. masses --      7.0755                 8.2561                 8.8121
 Frc consts  --      0.0027                 0.0112                 0.0173
 IR Inten    --      0.5055                 9.0006                 0.7905

                      4                      5                      6
                      A                      A                      A
 Frequencies --     74.5459                85.0677                95.2813
 Red. masses --     11.0137                 7.3291                 3.5104
 Frc consts  --      0.0361                 0.0312                 0.0188
 IR Inten    --      1.1440                 2.8648                16.5965

                      7                      8                      9
                      A                      A                      A
 Frequencies --    109.8162               127.4241               145.7876
 Red. masses --      6.7203                13.0006                10.9962
 Frc consts  --      0.0477                 0.1244                 0.1377
 IR Inten    --      6.8148                 6.4110                11.4182

                     10                     11                     12
                      A                      A                      A
 Frequencies --    149.8527               173.9337               181.0160
 Red. masses --      7.9355                 9.7981                 4.9740
 Frc consts  --      0.1050                 0.1746                 0.0960
 IR Inten    --      0.0461                20.4090                28.1559

                     13                     14                     15
                      A                      A                      A
 Frequencies --    198.4556               217.2006               243.0989
 Red. masses --      6.6055                 6.3564                 6.8497
 Frc consts  --      0.1533                 0.1767                 0.2385
 IR Inten    --     11.1479                10.9354                 3.7382

                     16                     17                     18
                      A                      A                      A
 Frequencies --    260.9566               300.9134               331.9348
 Red. masses --     14.3109                 7.1219                 7.4595
 Frc consts  --      0.5742                 0.3800                 0.4842
 IR Inten    --      6.7369                43.6083                34.5264

                     19                     20                     21
                      A                      A                      A
 Frequencies --    380.8023               395.2596               425.9772
 Red. masses --      4.5323                 2.5988                12.3005
 Frc consts  --      0.3872                 0.2392                 1.3151
 IR Inten    --      3.6245                39.1587                32.9274

                     22                     23                     24
                      A                      A                      A
 Frequencies --    443.2488               445.7625               516.4826
 Red. masses --      4.4961                 3.6213                23.9351
 Frc consts  --      0.5204                 0.4240                 3.7618
 IR Inten    --      0.7315                17.4808                18.6941

                     25                     26                     27
                      A                      A                      A
 Frequencies --    529.1618               552.9714               573.5862
 Red. masses --      9.8746                 7.3836                12.0127
 Frc consts  --      1.6291                 1.3302                 2.3286
 IR Inten    --     18.0040                 1.0566                16.2833

                     28                     29                     30
                      A                      A                      A
 Frequencies --    631.5204               676.2297               703.8043
 Red. masses --      9.4880                 5.0227                 1.2173
 Frc consts  --      2.2295                 1.3533                 0.3553
 IR Inten    --      0.7259                 5.4671                34.6512

                     31                     32                     33
                      A                      A                      A
 Frequencies --    746.1505               751.6052               754.5434
 Red. masses --      1.9671                 3.5163                 7.0267
 Frc consts  --      0.6453                 1.1703                 2.3571
 IR Inten    --     22.9861                40.5040                13.5216

                     34                     35                     36
                      A                      A                      A
 Frequencies --    799.2997               834.0957               842.1443
 Red. masses --      1.8322                 3.9642                 3.2255
 Frc consts  --      0.6897                 1.6249                 1.3478
 IR Inten    --      2.2206                 4.7918                 6.5420

                     37                     38                     39
                      A                      A                      A
 Frequencies --    889.5585               897.3098               907.9587
 Red. masses --      4.1330                 1.3634                 6.5481
 Frc consts  --      1.9269                 0.6468                 3.1805
 IR Inten    --      0.7358                 0.1455                 3.1945

                     40                     41                     42
                      A                      A                      A
 Frequencies --    944.9819               946.4783               978.3807
 Red. masses --      1.1224                 1.2547                11.0288
 Frc consts  --      0.5905                 0.6622                 6.2201
 IR Inten    --     14.1873                 8.8524               152.5608

                     43                     44                     45
                      A                      A                      A
 Frequencies --   1117.2890              1143.5552              1178.6504
 Red. masses --      1.0575                 3.3619                 1.0411
 Frc consts  --      0.7778                 2.5903                 0.8522
 IR Inten    --      6.1085                71.2106                 1.8517

                     46                     47                     48
                      A                      A                      A
 Frequencies --   1229.3545              1292.4612              1309.4502
 Red. masses --      1.2197                 1.4042                 1.2960
 Frc consts  --      1.0861                 1.3820                 1.3093
 IR Inten    --      8.2164                 3.2386                 6.4685

                     49                     50                     51
                      A                      A                      A
 Frequencies --   1330.9479              1411.7359              1529.2440
 Red. masses --      1.2520                 1.3242                 6.9968
 Frc consts  --      1.3067                 1.5549                 9.6406
 IR Inten    --     20.0122                38.7639                25.7828

                     52                     53                     54
                      A                      A                      A
 Frequencies --   1576.1544              1659.2557              3146.5412
 Red. masses --      7.8963                 4.9625                 1.0825
 Frc consts  --     11.5578                 8.0496                 6.3145
 IR Inten    --     11.9966               131.5215                 0.6773

                     55                     56                     57
                      A                      A                      A
 Frequencies --   3163.4947              3168.0994              3199.9363
 Red. masses --      1.0892                 1.0972                 1.0905
 Frc consts  --      6.4226                 6.4881                 6.5792
 IR Inten    --      7.1812                 7.9856                 6.5735

                     58                     59                     60
                      A                      A                      A
 Frequencies --   3221.9452              3247.8095              3636.0535
 Red. masses --      1.0872                 1.0985                 1.0772
 Frc consts  --      6.6494                 6.8269                 8.3907
 IR Inten    --      1.8910                 4.2356                82.1623

 - Thermochemistry -
 -------------------
 Temperature   298.150 Kelvin.  Pressure   1.00000 Atm.
 Atom     1 has atomic number  6 and mass  12.00000

 Molecular mass:   328.86235 amu.
 Principal axes and moments of inertia in atomic units:
                           1         2         3
     Eigenvalues --  4863.201966623.786838874.00212
           X            0.99999  -0.00089   0.00346
           Y            0.00087   0.99998   0.00587
           Z           -0.00346  -0.00587   0.99998
 This molecule is an asymmetric top.
 Rotational symmetry number  1.
 Warning -- assumption of classical behavior for rotation
           may cause significant error
 Rotational temperatures (Kelvin)      0.01781     0.01308     0.00976
 Rotational constants (GHZ):           0.37110     0.27246     0.20337
 Zero-point vibrational energy     340671.3 (Joules/Mol)
                                   81.42240 (Kcal/Mol)
 Warning -- explicit consideration of  27 degrees of freedom as
           vibrations may cause significant error
 Vibrational temperatures:     36.91    68.91    82.97   107.25   122.39
          (Kelvin)            137.09   158.00   183.33   209.76   215.60
                              250.25   260.44   285.53   312.50   349.77
                              375.46   432.95   477.58   547.89   568.69
                              612.89   637.74   641.35   743.10   761.35
                              795.60   825.26   908.62   972.94  1012.62
                             1073.54  1081.39  1085.62  1150.01  1200.08
                             1211.66  1279.88  1291.03  1306.35  1359.62
                             1361.77  1407.67  1607.53  1645.32  1695.82
                             1768.77  1859.56  1884.01  1914.94  2031.17
                             2200.24  2267.73  2387.30  4527.17  4551.56
                             4558.19  4603.99  4635.66  4672.87  5231.47

 Zero-point correction=                           0.129755 (Hartree/Particle)
 Thermal correction to Energy=                    0.147715
 Thermal correction to Enthalpy=                  0.148659
 Thermal correction to Gibbs Free Energy=         0.081675
 Sum of electronic and zero-point Energies=          -3112.851896
 Sum of electronic and thermal Energies=             -3112.833935
 Sum of electronic and thermal Enthalpies=           -3112.832991
 Sum of electronic and thermal Free Energies=        -3112.899976

                     E (Thermal)             CV                S
                      KCal/Mol        Cal/Mol-Kelvin    Cal/Mol-Kelvin
 Total                   92.693             62.530            140.980
 Electronic               0.000              0.000              0.000
 Translational            0.889              2.981             43.267
 Rotational               0.889              2.981             34.013
 Vibrational             90.915             56.568             63.701
 Vibration     1          0.593              1.985              6.140
 Vibration     2          0.595              1.978              4.902
 Vibration     3          0.596              1.974              4.535
 Vibration     4          0.599              1.966              4.030
 Vibration     5          0.601              1.960              3.770
 Vibration     6          0.603              1.953              3.549
 Vibration     7          0.606              1.941              3.272
 Vibration     8          0.611              1.926              2.985
 Vibration     9          0.617              1.907              2.726
 Vibration    10          0.618              1.903              2.674
 Vibration    11          0.627              1.875              2.393
 Vibration    12          0.630              1.866              2.318
 Vibration    13          0.637              1.842              2.147
 Vibration    14          0.646              1.815              1.982
 Vibration    15          0.659              1.774              1.780
 Vibration    16          0.669              1.744              1.655
 Vibration    17          0.693              1.672              1.412
 Vibration    18          0.714              1.612              1.251
 Vibration    19          0.751              1.511              1.036
 Vibration    20          0.762              1.480              0.980
 Vibration    21          0.788              1.414              0.872
 Vibration    22          0.803              1.376              0.816
 Vibration    23          0.805              1.370              0.809
 Vibration    24          0.872              1.213              0.618
 Vibration    25          0.884              1.185              0.589
 Vibration    26          0.908              1.133              0.538
 Vibration    27          0.930              1.088              0.497

 Optimization completed.
    -- Stationary point found.
 Normal termination of Gaussian 16 at Wed May 17 19:02:45 2023.
