 Gaussian 16, Revision A.03,
 Gaussian 16:  ES64L-G16RevA.03 25-Dec-2016

 -----------------------------
 # opt freq b3lyp/6-31g(2df,p)
 -----------------------------

 -------------------
 Title Card Required
 -------------------
 Symbolic Z-matrix:
 Charge =  0 Multiplicity = 1

 SCF Done:  E(RB3LYP) =  -1047.29686135     A.U. after   34 cycles
 SCF Done:  E(RB3LYP) =  -1047.43187764     A.U. after   26 cycles
 SCF Done:  E(RB3LYP) =  -1047.61629740     A.U. after   42 cycles
 SCF Done:  E(RB3LYP) =  -1047.81790864     A.U. after   91 cycles
 SCF Done:  E(RB3LYP) =  -1047.90101681     A.U. after   25 cycles
 SCF Done:  E(RB3LYP) =  -1047.98235994     A.U. after   28 cycles
 SCF Done:  E(RB3LYP) =  -1048.05500322     A.U. after   22 cycles
 SCF Done:  E(RB3LYP) =  -1048.05089690     A.U. after   50 cycles
 SCF Done:  E(RB3LYP) =  -1048.12007672     A.U. after   26 cycles
 SCF Done:  E(RB3LYP) =  -1048.13216032     A.U. after   27 cycles
 SCF Done:  E(RB3LYP) =  -1048.24996423     A.U. after   15 cycles
 SCF Done:  E(RB3LYP) =  -1048.24998902     A.U. after   14 cycles
 SCF Done:  E(RB3LYP) =  -1048.25001223     A.U. after   14 cycles
 SCF Done:  E(RB3LYP) =  -1048.25002824     A.U. after   15 cycles
 SCF Done:  E(RB3LYP) =  -1048.25003169     A.U. after   11 cycles
 SCF Done:  E(RB3LYP) =  -1048.25003290     A.U. after   12 cycles
 SCF Done:  E(RB3LYP) =  -1048.25003405     A.U. after   11 cycles
 SCF Done:  E(RB3LYP) =  -1048.25003433     A.U. after    9 cycles
 SCF Done:  E(RB3LYP) =  -1048.25003441     A.U. after    9 cycles
 Optimization completed.
    -- Stationary point found.
 Normal termination of Gaussian 16 at Sat May 20 02:17:08 2023.

 ----------------------------------------------------------------------
 #N Geom=AllCheck Guess=TCheck SCRF=Check GenChk RB3LYP/6-31G(2df,p) Fr
 eq
 ----------------------------------------------------------------------

 Structure from the checkpoint file:  "C1dCNCdS2CqdC1rCdCCdCc1ncccc12.chk"
 -------------------
 Title Card Required
 -------------------
 Charge =  0 Multiplicity = 1

                         Standard orientation:
 ---------------------------------------------------------------------
 Center     Atomic      Atomic             Coordinates (Angstroms)
 Number     Number       Type             X           Y           Z
 ---------------------------------------------------------------------
      1          6           0       -4.188964   -1.948948   -0.036294
      2          6           0       -5.175238   -1.012446    0.298638
      3          7           0       -4.859175    0.225153    0.627300
      4          6           0       -3.509433    0.815249    0.486256
      5         16           0       -3.658171    1.907792   -0.949217
      6          6           0       -2.461998   -0.244203    0.235468
      7          6           0       -2.864936   -1.558592   -0.081616
      8          6           0       -1.137145    0.176029    0.301732
      9          6           0        0.008506   -0.582983    0.034651
     10          6           0        1.298571   -0.084350    0.147580
     11          6           0        2.432125   -0.848435   -0.103204
     12          6           0        3.768600   -0.376301   -0.013394
     13          7           0        4.011486    0.829369    0.589494
     14          6           0        5.272504    1.189003    0.697244
     15          6           0        6.346972    0.499431    0.096849
     16          6           0        6.056201   -0.591820   -0.723249
     17          6           0        4.791875   -1.143098   -0.598177
     18          1           0       -4.488712   -2.959070   -0.280589
     19          1           0       -6.231224   -1.255003    0.263088
     20          1           0       -5.589490    0.921718    0.710829
     21          1           0       -3.298485    1.365291    1.408925
     22          1           0       -2.115197   -2.287485   -0.366884
     23          1           0       -0.975894    1.212082    0.591169
     24          1           0       -0.098884   -1.620497   -0.273021
     25          1           0        1.446219    0.947249    0.455287
     26          1           0        2.321554   -1.874067   -0.443808
     27          1           0        5.467966    2.124889    1.218544
     28          1           0        7.365922    0.840369    0.257915
     29          1           0        6.834946   -1.053017   -1.326454
 ---------------------------------------------------------------------

 SCF Done:  E(RB3LYP) =  -1048.25003441     A.U. after    3 cycles

 The electronic state is 1-A.
 Alpha  occ. eigenvalues --  -88.80374 -14.41843 -14.32636 -10.27265 -10.26033
 Alpha  occ. eigenvalues --  -10.22860 -10.22721 -10.22139 -10.22022 -10.21891
 Alpha  occ. eigenvalues --  -10.21873 -10.21441 -10.21176 -10.20504 -10.20000
 Alpha  occ. eigenvalues --  -10.19827 -10.17967  -7.86835  -5.83376  -5.82743
 Alpha  occ. eigenvalues --   -5.82486  -1.00057  -0.93982  -0.85881  -0.82768
 Alpha  occ. eigenvalues --   -0.81307  -0.79316  -0.77676  -0.73168  -0.69211
 Alpha  occ. eigenvalues --   -0.68183  -0.63831  -0.61341  -0.60966  -0.59897
 Alpha  occ. eigenvalues --   -0.56904  -0.56477  -0.52525  -0.51992  -0.50192
 Alpha  occ. eigenvalues --   -0.49412  -0.47317  -0.46121  -0.45562  -0.43621
 Alpha  occ. eigenvalues --   -0.42898  -0.41049  -0.40331  -0.39800  -0.39433
 Alpha  occ. eigenvalues --   -0.38730  -0.37525  -0.36911  -0.36201  -0.33385
 Alpha  occ. eigenvalues --   -0.32840  -0.28372  -0.27444  -0.26824  -0.23051
 Alpha  occ. eigenvalues --   -0.19432  -0.18710  -0.17556
 Alpha virt. eigenvalues --   -0.14005  -0.08865  -0.03168  -0.00291   0.02205
 Alpha virt. eigenvalues --    0.04592   0.05765   0.07782   0.08054   0.09948
 Alpha virt. eigenvalues --    0.10919   0.11235   0.12110   0.13051   0.14793

 Mulliken charges:
               1
     1  C   -0.127573
     2  C    0.037573
     3  N   -0.240324
     4  C   -0.052086
     5  S   -0.500359
     6  C    0.271711
     7  C   -0.147877
     8  C   -0.113035
     9  C   -0.084047
    10  C   -0.077302
    11  C   -0.147488
    12  C    0.308432
    13  N   -0.301001
    14  C   -0.002181
    15  C   -0.104870
    16  C   -0.102365
    17  C   -0.199181
    18  H    0.120296
    19  H    0.149121
    20  H    0.284904
    21  H    0.119920
    22  H    0.118911
    23  H    0.121683
    24  H    0.101957
    25  H    0.127780
    26  H    0.115850
    27  H    0.110265
    28  H    0.102773
    29  H    0.108513
 Sum of Mulliken charges =  -0.00000

 Dipole moment (field-independent basis, Debye):
    X=             -2.5641    Y=             -3.7223    Z=              3.1267  Tot=              5.4960
 Quadrupole moment (field-independent basis, Debye-Ang):
   XX=            -73.5669   YY=           -108.5494   ZZ=           -109.6823
   XY=             23.0317   XZ=            -12.8208   YZ=              7.2426

  Exact polarizability: 846.687 -18.312 206.123 -11.662   4.326 109.426
 Approx polarizability:3504.334-411.387 556.236-176.525  -2.647 235.558

                      1                      2                      3
                      A                      A                      A
 Frequencies --     29.3061                36.7967                43.5110
 Red. masses --      5.9944                 5.5817                 5.5388
 Frc consts  --      0.0030                 0.0045                 0.0062
 IR Inten    --      2.2824                 1.9361                 0.1057

                      4                      5                      6
                      A                      A                      A
 Frequencies --     73.5340               111.3329               126.3685
 Red. masses --      5.7855                 4.9950                 5.5865
 Frc consts  --      0.0184                 0.0365                 0.0526
 IR Inten    --      1.4527                 4.7758                 2.3904

                      7                      8                      9
                      A                      A                      A
 Frequencies --    145.5909               186.2011               215.1440
 Red. masses --      7.5900                 5.6358                 2.3972
 Frc consts  --      0.0948                 0.1151                 0.0654
 IR Inten    --      7.8059                13.3645                 0.2407

                     10                     11                     12
                      A                      A                      A
 Frequencies --    250.0001               272.6673               289.1895
 Red. masses --      3.5995                 4.2919                 4.6839
 Frc consts  --      0.1325                 0.1880                 0.2308
 IR Inten    --      0.2295                 3.7885                23.0002

                     13                     14                     15
                      A                      A                      A
 Frequencies --    339.5325               354.0372               412.3911
 Red. masses --      3.7220                 3.6848                 4.1119
 Frc consts  --      0.2528                 0.2721                 0.4120
 IR Inten    --     84.5091                31.5732                 9.6318

                     16                     17                     18
                      A                      A                      A
 Frequencies --    439.8648               475.3924               501.1189
 Red. masses --      5.5834                 3.5800                 3.5768
 Frc consts  --      0.6365                 0.4767                 0.5292
 IR Inten    --     50.7572                75.1410                49.1701

                     19                     20                     21
                      A                      A                      A
 Frequencies --    506.2791               561.3645               566.7004
 Red. masses --      3.0681                 3.3656                 3.8292
 Frc consts  --      0.4633                 0.6249                 0.7245
 IR Inten    --     29.0252                23.3578               413.2565

                     22                     23                     24
                      A                      A                      A
 Frequencies --    575.7484               587.3618               641.0364
 Red. masses --      5.9662                 4.7988                 4.1735
 Frc consts  --      1.1652                 0.9754                 1.0104
 IR Inten    --    222.3491                 9.2766                 9.3537

                     25                     26                     27
                      A                      A                      A
 Frequencies --    659.9228               739.4390               751.2609
 Red. masses --      1.6258                 4.1050                 6.6155
 Frc consts  --      0.4172                 1.3224                 2.1999
 IR Inten    --    112.6009                70.2898                65.8003

                     28                     29                     30
                      A                      A                      A
 Frequencies --    789.3915               798.2410               826.0206
 Red. masses --      1.4752                 1.3939                 4.4395
 Frc consts  --      0.5416                 0.5233                 1.7847
 IR Inten    --     81.7405                57.8940                 8.6196

                     31                     32                     33
                      A                      A                      A
 Frequencies --    875.8742               893.8906               900.4176
 Red. masses --      5.0030                 3.5178                 1.7305
 Frc consts  --      2.2614                 1.6561                 0.8266
 IR Inten    --    181.1449               419.2922                26.6293

                     34                     35                     36
                      A                      A                      A
 Frequencies --    909.9567               927.9245               939.0421
 Red. masses --      2.4325                 1.2215                 1.9351
 Frc consts  --      1.1867                 0.6197                 1.0054
 IR Inten    --      6.6205                16.7488                 5.1553

                     37                     38                     39
                      A                      A                      A
 Frequencies --    940.7663               947.7237               951.2113
 Red. masses --      1.6630                 1.5188                 1.4750
 Frc consts  --      0.8672                 0.8037                 0.7863
 IR Inten    --      0.8405                 8.4842                 2.0097

                     40                     41                     42
                      A                      A                      A
 Frequencies --    974.4963              1002.9672              1037.4913
 Red. masses --      1.4344                 3.3261                 1.1022
 Frc consts  --      0.8026                 1.9713                 0.6990
 IR Inten    --      3.5284                15.3847                28.2558

                     43                     44                     45
                      A                      A                      A
 Frequencies --   1056.6152              1058.4510              1114.8966
 Red. masses --      2.2805                 2.3956                 2.0784
 Frc consts  --      1.5001                 1.5813                 1.5221
 IR Inten    --     33.9854                10.1331                10.8229

                     46                     47                     48
                      A                      A                      A
 Frequencies --   1158.9664              1173.8551              1183.6085
 Red. masses --      1.3775                 1.3165                 1.3950
 Frc consts  --      1.0902                 1.0688                 1.1514
 IR Inten    --      8.9661                15.4451                32.6579

                     49                     50                     51
                      A                      A                      A
 Frequencies --   1206.8807              1223.9983              1243.7039
 Red. masses --      1.7045                 1.4556                 2.0550
 Frc consts  --      1.4628                 1.2848                 1.8728
 IR Inten    --     37.5996                22.8352                11.0701

                     52                     53                     54
                      A                      A                      A
 Frequencies --   1279.7436              1289.8889              1297.1554
 Red. masses --      1.2558                 1.7607                 1.7762
 Frc consts  --      1.2118                 1.7260                 1.7609
 IR Inten    --     58.6280                 3.8923               143.4708

                     55                     56                     57
                      A                      A                      A
 Frequencies --   1303.7743              1311.6438              1329.8423
 Red. masses --      3.2020                 1.9070                 2.1411
 Frc consts  --      3.2068                 1.9330                 2.2309
 IR Inten    --      5.1034               134.6337                14.9066

                     58                     59                     60
                      A                      A                      A
 Frequencies --   1356.4464              1382.3250              1419.2798
 Red. masses --      1.4883                 2.0020                 2.2310
 Frc consts  --      1.6134                 2.2539                 2.6478
 IR Inten    --      8.1387                79.0816                48.6169

                     61                     62                     63
                      A                      A                      A
 Frequencies --   1455.2574              1471.8152              1480.6571
 Red. masses --      2.5803                 2.3402                 2.1233
 Frc consts  --      3.2196                 2.9868                 2.7427
 IR Inten    --    369.4887                28.1726                63.2430

                     64                     65                     66
                      A                      A                      A
 Frequencies --   1505.2194              1546.0340              1553.4265
 Red. masses --      3.7129                 2.4006                 3.3810
 Frc consts  --      4.9564                 3.3807                 4.8070
 IR Inten    --     40.0708                62.9869               487.0767

                     67                     68                     69
                      A                      A                      A
 Frequencies --   1576.6918              1592.2285              1620.8374
 Red. masses --      4.7045                 4.1852                 4.6121
 Frc consts  --      6.8907                 6.2514                 7.1389
 IR Inten    --     22.1662                 6.6981                12.1722

                     70                     71                     72
                      A                      A                      A
 Frequencies --   3028.4324              3137.2389              3143.5194
 Red. masses --      1.0850                 1.0860                 1.0871
 Frc consts  --      5.8631                 6.2977                 6.3295
 IR Inten    --     44.3268                22.8671                56.1933

                     73                     74                     75
                      A                      A                      A
 Frequencies --   3151.9420              3161.6184              3172.2189
 Red. masses --      1.0882                 1.0871                 1.0946
 Frc consts  --      6.3698                 6.4021                 6.4898
 IR Inten    --      2.4006                 5.2738               126.5803

                     76                     77                     78
                      A                      A                      A
 Frequencies --   3174.6945              3183.5764              3195.2872
 Red. masses --      1.0897                 1.0863                 1.0867
 Frc consts  --      6.4709                 6.4868                 6.5368
 IR Inten    --      0.4321                 4.2953                 2.4650

                     79                     80                     81
                      A                      A                      A
 Frequencies --   3201.0354              3228.7457              3580.5577
 Red. masses --      1.0904                 1.0952                 1.0775
 Frc consts  --      6.5832                 6.7266                 8.1390
 IR Inten    --      7.3438                 2.9192               210.3562

 - Thermochemistry -
 -------------------
 Temperature   298.150 Kelvin.  Pressure   1.00000 Atm.
 Atom     1 has atomic number  6 and mass  12.00000

 Molecular mass:   240.07212 amu.
 Principal axes and moments of inertia in atomic units:
                           1         2         3
     Eigenvalues --  1353.84166********************
           X            0.99998   0.00639  -0.00222
           Y           -0.00629   0.99907   0.04261
           Z            0.00249  -0.04259   0.99909
 This molecule is an asymmetric top.
 Rotational symmetry number  1.
 Warning -- assumption of classical behavior for rotation
           may cause significant error
 Rotational temperatures (Kelvin)      0.06398     0.00612     0.00577
 Rotational constants (GHZ):           1.33305     0.12762     0.12026
 Zero-point vibrational energy     587118.9 (Joules/Mol)
                                  140.32479 (Kcal/Mol)
 Warning -- explicit consideration of  23 degrees of freedom as
           vibrations may cause significant error
 Vibrational temperatures:     42.16    52.94    62.60   105.80   160.18
          (Kelvin)            181.82   209.47   267.90   309.54   359.69
                              392.31   416.08   488.51   509.38   593.34
                              632.87   683.98   721.00   728.42   807.68
                              815.36   828.37   845.08   922.31   949.48
                             1063.89  1080.90  1135.76  1148.49  1188.46
                             1260.19  1286.11  1295.50  1309.22  1335.08
                             1351.07  1353.55  1363.56  1368.58  1402.08
                             1443.05  1492.72  1520.23  1522.87  1604.09
                             1667.49  1688.92  1702.95  1736.43  1761.06
                             1789.41  1841.27  1855.86  1866.32  1875.84
                             1887.16  1913.35  1951.62  1988.86  2042.03
                             2093.79  2117.61  2130.34  2165.67  2224.40
                             2235.03  2268.51  2290.86  2332.02  4357.24
                             4513.79  4522.82  4534.94  4548.86  4564.12
                             4567.68  4580.46  4597.31  4605.58  4645.44
                             5151.62

 Zero-point correction=                           0.223622 (Hartree/Particle)
 Thermal correction to Energy=                    0.238631
 Thermal correction to Enthalpy=                  0.239575
 Thermal correction to Gibbs Free Energy=         0.179220
 Sum of electronic and zero-point Energies=          -1048.026413
 Sum of electronic and thermal Energies=             -1048.011404
 Sum of electronic and thermal Enthalpies=           -1048.010459
 Sum of electronic and thermal Free Energies=        -1048.070815

                     E (Thermal)             CV                S
                      KCal/Mol        Cal/Mol-Kelvin    Cal/Mol-Kelvin
 Total                  149.743             57.268            127.029
 Electronic               0.000              0.000              0.000
 Translational            0.889              2.981             42.329
 Rotational               0.889              2.981             34.018
 Vibrational            147.966             51.306             50.682
 Vibration     1          0.593              1.984              5.876
 Vibration     2          0.594              1.982              5.424
 Vibration     3          0.595              1.980              5.092
 Vibration     4          0.599              1.966              4.056
 Vibration     5          0.607              1.940              3.246
 Vibration     6          0.611              1.927              3.001
 Vibration     7          0.617              1.907              2.729
 Vibration     8          0.632              1.859              2.265
 Vibration     9          0.645              1.818              2.000
 Vibration    10          0.663              1.763              1.731
 Vibration    11          0.676              1.724              1.579
 Vibration    12          0.686              1.694              1.479
 Vibration    13          0.719              1.596              1.214
 Vibration    14          0.730              1.567              1.148
 Vibration    15          0.776              1.443              0.918
 Vibration    16          0.800              1.383              0.827
 Vibration    17          0.832              1.305              0.723
 Vibration    18          0.856              1.248              0.655
 Vibration    19          0.862              1.236              0.643
 Vibration    20          0.917              1.115              0.521
 Vibration    21          0.923              1.103              0.511
 Vibration    22          0.932              1.084              0.493
 Vibration    23          0.945              1.059              0.472

                           ! Non-Optimized Parameters !
 Normal termination of Gaussian 16 at Sat May 20 04:37:36 2023.
