 Gaussian 16, Revision A.03,
 Gaussian 16:  ES64L-G16RevA.03 25-Dec-2016

 -----------------------------
 # opt freq b3lyp/6-31g(2df,p)
 -----------------------------

 -------------------
 Title Card Required
 -------------------
 Symbolic Z-matrix:
 Charge =  0 Multiplicity = 1

 SCF Done:  E(RB3LYP) =  -1581.44551141     A.U. after   17 cycles
 SCF Done:  E(RB3LYP) =  -1581.47529131     A.U. after   13 cycles
 SCF Done:  E(RB3LYP) =  -1581.49314100     A.U. after   13 cycles
 SCF Done:  E(RB3LYP) =  -1581.50805903     A.U. after   13 cycles
 SCF Done:  E(RB3LYP) =  -1581.53053007     A.U. after   14 cycles
 SCF Done:  E(RB3LYP) =  -1581.53677311     A.U. after   13 cycles
 SCF Done:  E(RB3LYP) =  -1581.54414348     A.U. after   13 cycles
 SCF Done:  E(RB3LYP) =  -1581.54886283     A.U. after   13 cycles
 SCF Done:  E(RB3LYP) =  -1581.55507199     A.U. after   13 cycles
 SCF Done:  E(RB3LYP) =  -1581.56008468     A.U. after   12 cycles
 SCF Done:  E(RB3LYP) =  -1581.57721292     A.U. after   11 cycles
 SCF Done:  E(RB3LYP) =  -1581.57678328     A.U. after   14 cycles
 SCF Done:  E(RB3LYP) =  -1581.57838422     A.U. after   12 cycles
 SCF Done:  E(RB3LYP) =  -1581.57854592     A.U. after   11 cycles
 SCF Done:  E(RB3LYP) =  -1581.57863585     A.U. after   11 cycles
 SCF Done:  E(RB3LYP) =  -1581.57868934     A.U. after   10 cycles
 SCF Done:  E(RB3LYP) =  -1581.57870403     A.U. after    9 cycles
 SCF Done:  E(RB3LYP) =  -1581.57871376     A.U. after    9 cycles
 SCF Done:  E(RB3LYP) =  -1581.57871463     A.U. after    8 cycles
 Optimization completed.
    -- Stationary point found.
 Normal termination of Gaussian 16 at Fri May 19 21:15:52 2023.

 ----------------------------------------------------------------------
 #N Geom=AllCheck Guess=TCheck SCRF=Check GenChk RB3LYP/6-31G(2df,p) Fr
 eq
 ----------------------------------------------------------------------

 Structure from the checkpoint file:  "C1dCCdC2CdCqCSS2rSCCdC1.chk"
 -------------------
 Title Card Required
 -------------------
 Charge =  0 Multiplicity = 1

                         Standard orientation:
 ---------------------------------------------------------------------
 Center     Atomic      Atomic             Coordinates (Angstroms)
 Number     Number       Type             X           Y           Z
 ---------------------------------------------------------------------
      1          6           0        2.275450   -1.731844   -0.563502
      2          6           0        1.459276   -2.167275    0.409519
      3          6           0        0.009520   -2.377699    0.249273
      4          6           0       -0.756354   -1.318682   -0.147783
      5          6           0       -0.120853   -0.084575   -0.587852
      6          6           0       -0.381049    1.172128   -0.184241
      7          6           0       -1.718177    1.634824    0.325305
      8         16           0       -3.050723    0.603105   -0.410812
      9         16           0       -2.474301   -1.254749    0.330941
     10         16           0        1.026451    2.256293   -0.058351
     11          6           0        2.258718    1.114427    0.837038
     12          6           0        3.351124    0.446287    0.044471
     13          6           0        3.407085   -0.800707   -0.467151
     14          1           0        1.958052   -1.909461   -1.594055
     15          1           0        1.803920   -2.130323    1.445782
     16          1           0       -0.470998   -3.222925    0.737148
     17          1           0        0.831148   -0.222301   -1.064489
     18          1           0       -1.931153    2.658714   -0.003466
     19          1           0       -1.787422    1.615809    1.418168
     20          1           0        2.712855    1.784135    1.571951
     21          1           0        1.625265    0.406497    1.364934
     22          1           0        4.222168    1.076918   -0.124183
     23          1           0        4.304906   -1.052748   -1.030699
 ---------------------------------------------------------------------

 SCF Done:  E(RB3LYP) =  -1581.57871463     A.U. after    1 cycles

 The electronic state is 1-A.
 Alpha  occ. eigenvalues --  -88.90547 -88.89910 -88.88925 -10.23666 -10.23633
 Alpha  occ. eigenvalues --  -10.23409 -10.22985 -10.20559 -10.20417 -10.19993
 Alpha  occ. eigenvalues --  -10.19701 -10.19584 -10.19375  -7.96755  -7.96186
 Alpha  occ. eigenvalues --   -7.95090  -5.93264  -5.92868  -5.92713  -5.92333
 Alpha  occ. eigenvalues --   -5.92282  -5.91634  -5.91558  -5.91217  -5.90677
 Alpha  occ. eigenvalues --   -0.87470  -0.82904  -0.82265  -0.78850  -0.76804
 Alpha  occ. eigenvalues --   -0.72976  -0.70239  -0.66698  -0.62790  -0.61191
 Alpha  occ. eigenvalues --   -0.56085  -0.53452  -0.51299  -0.49878  -0.47941
 Alpha  occ. eigenvalues --   -0.46584  -0.45433  -0.44708  -0.42299  -0.41908
 Alpha  occ. eigenvalues --   -0.39863  -0.39498  -0.38502  -0.36998  -0.35323
 Alpha  occ. eigenvalues --   -0.34794  -0.33578  -0.32332  -0.28528  -0.27716
 Alpha  occ. eigenvalues --   -0.25959  -0.23747  -0.23026  -0.20507
 Alpha virt. eigenvalues --   -0.05241  -0.04207  -0.03189   0.00990   0.02401
 Alpha virt. eigenvalues --    0.02670   0.03855   0.07020   0.08431   0.09927
 Alpha virt. eigenvalues --    0.10887   0.12357   0.14032   0.14513   0.15163

 Mulliken charges:
               1
     1  C   -0.118619
     2  C   -0.101065
     3  C   -0.218575
     4  C    0.178727
     5  C   -0.164426
     6  C    0.182101
     7  C   -0.316542
     8  S   -0.082060
     9  S   -0.072567
    10  S   -0.148826
    11  C   -0.272759
    12  C   -0.037133
    13  C   -0.095708
    14  H    0.114192
    15  H    0.100174
    16  H    0.108885
    17  H    0.133152
    18  H    0.156198
    19  H    0.159090
    20  H    0.141566
    21  H    0.152011
    22  H    0.101605
    23  H    0.100578
 Sum of Mulliken charges =   0.00000

 Dipole moment (field-independent basis, Debye):
    X=              2.1088    Y=              0.3421    Z=              1.2012  Tot=              2.4509
 Quadrupole moment (field-independent basis, Debye-Ang):
   XX=            -97.1454   YY=            -97.7663   ZZ=            -97.2712
   XY=             -2.0703   XZ=             -0.5494   YZ=              1.1141

  Exact polarizability: 205.527  -3.594 184.197  -2.940  -1.017 101.064
 Approx polarizability: 315.818 -14.319 370.927  -5.341  -6.148 189.642

                      1                      2                      3
                      A                      A                      A
 Frequencies --     65.2556                77.7129               154.0822
 Red. masses --      6.2839                 5.2406                 3.8917
 Frc consts  --      0.0158                 0.0186                 0.0544
 IR Inten    --      0.5632                 0.0724                 0.4037

                      4                      5                      6
                      A                      A                      A
 Frequencies --    190.4347               201.0243               214.8071
 Red. masses --      6.1968                 4.7303                 4.6408
 Frc consts  --      0.1324                 0.1126                 0.1262
 IR Inten    --      1.2616                 1.0677                 0.6241

                      7                      8                      9
                      A                      A                      A
 Frequencies --    235.2222               250.2321               267.9771
 Red. masses --      3.6603                 3.7718                 3.1888
 Frc consts  --      0.1193                 0.1392                 0.1349
 IR Inten    --      0.4485                 0.2728                 2.5328

                     10                     11                     12
                      A                      A                      A
 Frequencies --    298.3045               312.3652               348.4924
 Red. masses --      2.7950                 7.1996                 5.4549
 Frc consts  --      0.1465                 0.4139                 0.3903
 IR Inten    --      0.2644                 1.5005                 0.1733

                     13                     14                     15
                      A                      A                      A
 Frequencies --    403.5816               459.3041               470.3579
 Red. masses --      3.2917                 4.2396                 4.5373
 Frc consts  --      0.3159                 0.5270                 0.5914
 IR Inten    --      3.3725                 2.4842                 0.4585

                     16                     17                     18
                      A                      A                      A
 Frequencies --    496.9954               536.2309               545.5498
 Red. masses --     10.0822                 6.4576                 3.4631
 Frc consts  --      1.4673                 1.0940                 0.6073
 IR Inten    --      0.9848                 0.4766                 3.1318

                     19                     20                     21
                      A                      A                      A
 Frequencies --    578.2016               602.3148               663.1021
 Red. masses --      3.3025                 3.7754                 4.0210
 Frc consts  --      0.6505                 0.8070                 1.0417
 IR Inten    --     14.1864                 1.8353                10.0518

                     22                     23                     24
                      A                      A                      A
 Frequencies --    688.1703               735.1908               786.9446
 Red. masses --      5.3147                 3.6628                 1.7283
 Frc consts  --      1.4829                 1.1664                 0.6306
 IR Inten    --     10.0702                 1.5952                18.5560

                     25                     26                     27
                      A                      A                      A
 Frequencies --    821.7475               832.0324               851.5568
 Red. masses --      2.0152                 1.9675                 2.1881
 Frc consts  --      0.8018                 0.8025                 0.9349
 IR Inten    --     23.2840                28.0637                15.5301

                     28                     29                     30
                      A                      A                      A
 Frequencies --    882.1626               894.4014               925.6435
 Red. masses --      2.3731                 2.3614                 1.5648
 Frc consts  --      1.0881                 1.1130                 0.7899
 IR Inten    --      2.3229                 2.1952                12.8067

                     31                     32                     33
                      A                      A                      A
 Frequencies --    951.7574               977.2200               993.5425
 Red. masses --      1.7437                 1.7794                 2.7629
 Frc consts  --      0.9306                 1.0012                 1.6069
 IR Inten    --     14.6954                15.5387                 1.2106

                     34                     35                     36
                      A                      A                      A
 Frequencies --   1018.4313              1032.3929              1079.8095
 Red. masses --      1.3784                 1.9147                 2.6204
 Frc consts  --      0.8424                 1.2024                 1.8001
 IR Inten    --      9.6794                 0.7918                 4.6808

                     37                     38                     39
                      A                      A                      A
 Frequencies --   1131.5997              1154.7592              1189.3685
 Red. masses --      2.4172                 1.1206                 1.0886
 Frc consts  --      1.8237                 0.8804                 0.9073
 IR Inten    --     29.9482                22.9925                 3.3822

                     40                     41                     42
                      A                      A                      A
 Frequencies --   1235.2668              1241.9807              1271.3767
 Red. masses --      1.2038                 1.3147                 1.2542
 Frc consts  --      1.0823                 1.1948                 1.1945
 IR Inten    --      5.3287                 2.7611                10.4620

                     43                     44                     45
                      A                      A                      A
 Frequencies --   1303.3921              1321.5145              1341.1098
 Red. masses --      1.2659                 1.2857                 1.5151
 Frc consts  --      1.2671                 1.3230                 1.6056
 IR Inten    --      7.0221                 1.8756                 7.8680

                     46                     47                     48
                      A                      A                      A
 Frequencies --   1386.0472              1427.5295              1431.7724
 Red. masses --      1.4037                 1.3485                 1.1010
 Frc consts  --      1.5888                 1.6191                 1.3298
 IR Inten    --      3.1071                 2.3324                 6.3919

                     49                     50                     51
                      A                      A                      A
 Frequencies --   1458.7149              1534.1713              1640.6866
 Red. masses --      1.1349                 6.2122                 7.9505
 Frc consts  --      1.4228                 8.6148                12.6095
 IR Inten    --      5.4498                50.3286                 9.5283

                     52                     53                     54
                      A                      A                      A
 Frequencies --   1652.0748              1678.1419              3036.7314
 Red. masses --      6.3725                 6.4089                 1.0570
 Frc consts  --     10.2475                10.6339                 5.7432
 IR Inten    --      6.8809                21.1557                 6.5383

                     55                     56                     57
                      A                      A                      A
 Frequencies --   3075.5475              3083.3815              3084.5587
 Red. masses --      1.0669                 1.1052                 1.0865
 Frc consts  --      5.9461                 6.1906                 6.0905
 IR Inten    --      7.6502                 1.6965                 4.5164

                     58                     59                     60
                      A                      A                      A
 Frequencies --   3091.0866              3121.8986              3146.0900
 Red. masses --      1.0839                 1.0830                 1.0879
 Frc consts  --      6.1018                 6.2191                 6.3445
 IR Inten    --     23.8146                10.8782                15.5161

                     61                     62                     63
                      A                      A                      A
 Frequencies --   3147.8287              3172.3573              3296.0256
 Red. masses --      1.0916                 1.0978                 1.0845
 Frc consts  --      6.3728                 6.5095                 6.9415
 IR Inten    --     28.7501                 6.8450                 2.0256

 - Thermochemistry -
 -------------------
 Temperature   298.150 Kelvin.  Pressure   1.00000 Atm.
 Atom     1 has atomic number  6 and mass  12.00000

 Molecular mass:   225.99447 amu.
 Principal axes and moments of inertia in atomic units:
                           1         2         3
     Eigenvalues --  1999.721673934.553735602.38233
           X            0.99987  -0.01591  -0.00262
           Y            0.01593   0.99983   0.00936
           Z            0.00247  -0.00940   0.99995
 This molecule is an asymmetric top.
 Rotational symmetry number  1.
 Warning -- assumption of classical behavior for rotation
           may cause significant error
 Rotational temperatures (Kelvin)      0.04331     0.02201     0.01546
 Rotational constants (GHZ):           0.90250     0.45869     0.32214
 Zero-point vibrational energy     451575.7 (Joules/Mol)
                                  107.92919 (Kcal/Mol)
 Warning -- explicit consideration of  20 degrees of freedom as
           vibrations may cause significant error
 Vibrational temperatures:     93.89   111.81   221.69   273.99   289.23
          (Kelvin)            309.06   338.43   360.03   385.56   429.19
                              449.42   501.40   580.66   660.84   676.74
                              715.07   771.52   784.92   831.90   866.60
                              954.06   990.12  1057.78  1132.24  1182.31
                             1197.11  1225.20  1269.24  1286.84  1331.79
                             1369.37  1406.00  1429.49  1465.30  1485.38
                             1553.61  1628.12  1661.44  1711.24  1777.27
                             1786.93  1829.23  1875.29  1901.36  1929.56
                             1994.21  2053.90  2060.00  2098.77  2207.33
                             2360.58  2376.97  2414.47  4369.18  4425.03
                             4436.30  4437.99  4447.38  4491.72  4526.52
                             4529.02  4564.31  4742.25

 Zero-point correction=                           0.171996 (Hartree/Particle)
 Thermal correction to Energy=                    0.184305
 Thermal correction to Enthalpy=                  0.185249
 Thermal correction to Gibbs Free Energy=         0.133504
 Sum of electronic and zero-point Energies=          -1581.406719
 Sum of electronic and thermal Energies=             -1581.394410
 Sum of electronic and thermal Enthalpies=           -1581.393465
 Sum of electronic and thermal Free Energies=        -1581.445211

                     E (Thermal)             CV                S
                      KCal/Mol        Cal/Mol-Kelvin    Cal/Mol-Kelvin
 Total                  115.653             48.207            108.907
 Electronic               0.000              0.000              0.000
 Translational            0.889              2.981             42.148
 Rotational               0.889              2.981             32.155
 Vibrational            113.876             42.246             34.603
 Vibration     1          0.597              1.971              4.292
 Vibration     2          0.599              1.964              3.948
 Vibration     3          0.620              1.898              2.621
 Vibration     4          0.634              1.853              2.224
 Vibration     5          0.638              1.838              2.124
 Vibration     6          0.645              1.818              2.002
 Vibration     7          0.655              1.787              1.839
 Vibration     8          0.663              1.762              1.729
 Vibration     9          0.673              1.732              1.609
 Vibration    10          0.691              1.677              1.426
 Vibration    11          0.701              1.650              1.350
 Vibration    12          0.726              1.578              1.173
 Vibration    13          0.769              1.462              0.950
 Vibration    14          0.817              1.340              0.768
 Vibration    15          0.827              1.316              0.737
 Vibration    16          0.853              1.257              0.666
 Vibration    17          0.891              1.170              0.573
 Vibration    18          0.901              1.149              0.553
 Vibration    19          0.935              1.078              0.489
 Vibration    20          0.961              1.027              0.446

                           ! Non-Optimized Parameters !
 Normal termination of Gaussian 16 at Fri May 19 22:32:44 2023.
