 Gaussian 16, Revision A.03,
 Gaussian 16:  ES64L-G16RevA.03 25-Dec-2016

 -----------------------------
 # opt freq b3lyp/6-31g(2df,p)
 -----------------------------

 -------------------
 Title Card Required
 -------------------
 Symbolic Z-matrix:
 Charge =  0 Multiplicity = 1

 SCF Done:  E(RB3LYP) =  -616.435791111     A.U. after   21 cycles
 SCF Done:  E(RB3LYP) =  -616.524401614     A.U. after   16 cycles
 SCF Done:  E(RB3LYP) =  -616.627384194     A.U. after   17 cycles
 SCF Done:  E(RB3LYP) =  -616.684223272     A.U. after   16 cycles
 SCF Done:  E(RB3LYP) =  -616.711458664     A.U. after   16 cycles
 SCF Done:  E(RB3LYP) =  -616.734800208     A.U. after   15 cycles
 SCF Done:  E(RB3LYP) =  -616.747780959     A.U. after   15 cycles
 SCF Done:  E(RB3LYP) =  -616.757910755     A.U. after   15 cycles
 SCF Done:  E(RB3LYP) =  -616.770095811     A.U. after   15 cycles
 SCF Done:  E(RB3LYP) =  -616.777937278     A.U. after   15 cycles
 SCF Done:  E(RB3LYP) =  -616.789119595     A.U. after   13 cycles
 SCF Done:  E(RB3LYP) =  -616.790316940     A.U. after   15 cycles
 SCF Done:  E(RB3LYP) =  -616.790300261     A.U. after   14 cycles
 SCF Done:  E(RB3LYP) =  -616.790651728     A.U. after   13 cycles
 SCF Done:  E(RB3LYP) =  -616.790721350     A.U. after   13 cycles
 SCF Done:  E(RB3LYP) =  -616.790707719     A.U. after   12 cycles
 SCF Done:  E(RB3LYP) =  -616.790745122     A.U. after   12 cycles
 SCF Done:  E(RB3LYP) =  -616.790764374     A.U. after   11 cycles
 SCF Done:  E(RB3LYP) =  -616.790764664     A.U. after    8 cycles
 Optimization completed.
    -- Stationary point found.
 Normal termination of Gaussian 16 at Tue May 16 13:04:16 2023.

 ----------------------------------------------------------------------
 #N Geom=AllCheck Guess=TCheck SCRF=Check GenChk RB3LYP/6-31G(2df,p) Fr
 eq
 ----------------------------------------------------------------------

 Structure from the checkpoint file:  "C1dCdc2ccccc2dCCdCCdCCdCCd1.chk"
 -------------------
 Title Card Required
 -------------------
 Charge =  0 Multiplicity = 1

                         Standard orientation:
 ---------------------------------------------------------------------
 Center     Atomic      Atomic             Coordinates (Angstroms)
 Number     Number       Type             X           Y           Z
 ---------------------------------------------------------------------
      1          6           0        1.031936    1.474966   -0.019988
      2          6           0       -0.102193    0.970104    0.075924
      3          6           0       -1.424513    0.594361    0.127734
      4          6           0       -2.395150    1.657582    0.159947
      5          6           0       -3.729086    1.423724    0.012528
      6          6           0       -4.209929    0.095600   -0.189753
      7          6           0       -3.339859   -0.949606   -0.194411
      8          6           0       -1.928439   -0.780446    0.029309
      9          6           0       -1.114608   -1.904236    0.067210
     10          6           0        0.235778   -1.850141    0.508744
     11          6           0        1.331604   -2.333043   -0.133667
     12          6           0        2.619886   -1.746552    0.224890
     13          6           0        3.040947   -0.684259   -0.500908
     14          6           0        3.955421    0.341844   -0.070747
     15          6           0        3.552816    1.646330   -0.002226
     16          6           0        2.215066    2.143327   -0.070821
     17          1           0       -2.021208    2.667791    0.281288
     18          1           0       -4.430025    2.251500    0.029643
     19          1           0       -5.272143   -0.075143   -0.328401
     20          1           0       -3.702867   -1.964456   -0.326240
     21          1           0       -1.516768   -2.833999   -0.329663
     22          1           0        0.427769   -1.152810    1.322963
     23          1           0        1.218021   -2.843521   -1.087526
     24          1           0        3.029084   -1.918033    1.218188
     25          1           0        2.453323   -0.435049   -1.383140
     26          1           0        4.947674    0.078279    0.287224
     27          1           0        4.304141    2.398714    0.226898
     28          1           0        2.124944    3.229394   -0.053824
 ---------------------------------------------------------------------

 SCF Done:  E(RB3LYP) =  -616.790764664     A.U. after    1 cycles

 The electronic state is 1-A.
 Alpha  occ. eigenvalues --  -10.21385 -10.20231 -10.20068 -10.19612 -10.19469
 Alpha  occ. eigenvalues --  -10.19381 -10.19096 -10.19011 -10.18973 -10.18955
 Alpha  occ. eigenvalues --  -10.18845 -10.18841 -10.18834 -10.18724 -10.18656
 Alpha  occ. eigenvalues --  -10.18614  -0.86318  -0.83239  -0.81137  -0.79057
 Alpha  occ. eigenvalues --   -0.77334  -0.74822  -0.73027  -0.68012  -0.67344
 Alpha  occ. eigenvalues --   -0.61372  -0.60286  -0.58265  -0.55363  -0.54457
 Alpha  occ. eigenvalues --   -0.52154  -0.49583  -0.48279  -0.46929  -0.46397
 Alpha  occ. eigenvalues --   -0.44780  -0.42781  -0.42412  -0.41809  -0.40311
 Alpha  occ. eigenvalues --   -0.39183  -0.38125  -0.37103  -0.36264  -0.34581
 Alpha  occ. eigenvalues --   -0.34071  -0.33435  -0.30748  -0.29763  -0.27773
 Alpha  occ. eigenvalues --   -0.25325  -0.24672  -0.21661  -0.17254
 Alpha virt. eigenvalues --   -0.08917  -0.03161  -0.00261   0.00656   0.03482
 Alpha virt. eigenvalues --    0.04900   0.06686   0.10175   0.11669   0.12425
 Alpha virt. eigenvalues --    0.12942   0.13428   0.15818   0.15954   0.16752

 Mulliken charges:
               1
     1  C    0.197705
     2  C   -0.045937
     3  C   -0.001753
     4  C   -0.147868
     5  C   -0.122192
     6  C   -0.129607
     7  C   -0.144688
     8  C    0.244173
     9  C   -0.234147
    10  C   -0.053439
    11  C   -0.142878
    12  C   -0.130767
    13  C   -0.046213
    14  C   -0.174853
    15  C   -0.011728
    16  C   -0.295642
    17  H    0.101365
    18  H    0.099714
    19  H    0.097674
    20  H    0.095611
    21  H    0.101070
    22  H    0.112651
    23  H    0.105237
    24  H    0.105505
    25  H    0.112415
    26  H    0.103462
    27  H    0.093083
    28  H    0.112049
 Sum of Mulliken charges =  -0.00000

 Dipole moment (field-independent basis, Debye):
    X=             -0.1672    Y=             -0.2568    Z=              0.0216  Tot=              0.3072
 Quadrupole moment (field-independent basis, Debye-Ang):
   XX=            -81.6379   YY=            -85.4516   ZZ=            -94.2469
   XY=              1.2506   XZ=              2.6736   YZ=              1.6729

  Exact polarizability: 370.450  20.440 213.277   3.972   2.861  79.258
 Approx polarizability: 818.176 116.551 495.595  -7.141  -2.126 137.935

                      1                      2                      3
                      A                      A                      A
 Frequencies --     55.9197                84.8634               100.8627
 Red. masses --      2.8314                 4.3332                 4.2052
 Frc consts  --      0.0052                 0.0184                 0.0252
 IR Inten    --      0.0603                 0.2937                 0.5530

                      4                      5                      6
                      A                      A                      A
 Frequencies --    140.5833               159.6617               195.3831
 Red. masses --      4.7351                 3.7243                 4.4724
 Frc consts  --      0.0551                 0.0559                 0.1006
 IR Inten    --      0.1883                 0.6145                 0.8878

                      7                      8                      9
                      A                      A                      A
 Frequencies --    228.3027               242.1004               298.6809
 Red. masses --      3.5703                 2.6526                 3.5806
 Frc consts  --      0.1096                 0.0916                 0.1882
 IR Inten    --      1.9584                 0.3307                 1.6150

                     10                     11                     12
                      A                      A                      A
 Frequencies --    321.9780               332.2390               351.6112
 Red. masses --      3.4805                 4.0075                 4.8406
 Frc consts  --      0.2126                 0.2606                 0.3526
 IR Inten    --      0.4378                 0.0568                 3.0201

                     13                     14                     15
                      A                      A                      A
 Frequencies --    396.5547               447.6470               476.9238
 Red. masses --      3.7234                 3.8339                 3.4309
 Frc consts  --      0.3450                 0.4527                 0.4598
 IR Inten    --      0.8739                 3.0090                 7.4810

                     16                     17                     18
                      A                      A                      A
 Frequencies --    479.5060               500.9171               514.3158
 Red. masses --      4.1244                 3.6449                 2.9197
 Frc consts  --      0.5587                 0.5389                 0.4550
 IR Inten    --      3.0618                 2.4970                 6.2694

                     19                     20                     21
                      A                      A                      A
 Frequencies --    545.2093               567.9235               577.0486
 Red. masses --      4.8019                 3.9673                 4.0661
 Frc consts  --      0.8410                 0.7539                 0.7977
 IR Inten    --      3.7953                 0.5419                 2.8984

                     22                     23                     24
                      A                      A                      A
 Frequencies --    621.7618               675.6157               728.8851
 Red. masses --      5.7690                 5.2539                 1.6373
 Frc consts  --      1.3140                 1.4130                 0.5125
 IR Inten    --      5.9671                 1.8712                32.7873

                     25                     26                     27
                      A                      A                      A
 Frequencies --    741.0210               764.0054               778.5736
 Red. masses --      1.8490                 1.8530                 3.6609
 Frc consts  --      0.5982                 0.6372                 1.3075
 IR Inten    --      4.6966                22.5928                 2.6387

                     28                     29                     30
                      A                      A                      A
 Frequencies --    821.1532               833.1163               845.6049
 Red. masses --      1.6048                 2.2525                 1.4570
 Frc consts  --      0.6375                 0.9211                 0.6138
 IR Inten    --     38.7535                 9.6059                 6.3226

                     31                     32                     33
                      A                      A                      A
 Frequencies --    868.4161               875.8320               886.1070
 Red. masses --      1.8669                 1.9030                 2.9669
 Frc consts  --      0.8295                 0.8600                 1.3726
 IR Inten    --     19.7085                33.0251                 2.8116

                     34                     35                     36
                      A                      A                      A
 Frequencies --    914.8466               951.8873               955.8300
 Red. masses --      1.5396                 2.3233                 1.6865
 Frc consts  --      0.7592                 1.2403                 0.9078
 IR Inten    --      1.5786                 3.9530                 1.7294

                     37                     38                     39
                      A                      A                      A
 Frequencies --    966.6637               977.2737               977.5497
 Red. masses --      1.2844                 1.2364                 1.2398
 Frc consts  --      0.7071                 0.6957                 0.6980
 IR Inten    --      4.0998                11.6171                14.8474

                     40                     41                     42
                      A                      A                      A
 Frequencies --   1025.9661              1074.5632              1124.8618
 Red. masses --      2.5911                 2.7250                 2.6375
 Frc consts  --      1.6069                 1.8539                 1.9662
 IR Inten    --      3.1091                 0.9477                 1.3754

                     43                     44                     45
                      A                      A                      A
 Frequencies --   1144.8348              1161.7112              1178.7243
 Red. masses --      2.3758                 2.0187                 1.2649
 Frc consts  --      1.8346                 1.6052                 1.0355
 IR Inten    --      4.2040                 1.5671                 0.2520

                     46                     47                     48
                      A                      A                      A
 Frequencies --   1197.3878              1211.9354              1222.3218
 Red. masses --      2.0906                 1.2757                 1.4061
 Frc consts  --      1.7660                 1.1040                 1.2378
 IR Inten    --      3.8879                 5.5252                 1.8465

                     49                     50                     51
                      A                      A                      A
 Frequencies --   1243.3328              1266.6140              1302.7823
 Red. masses --      1.5241                 1.2990                 1.4646
 Frc consts  --      1.3882                 1.2279                 1.4646
 IR Inten    --      3.6078                 1.2463                 7.2140

                     52                     53                     54
                      A                      A                      A
 Frequencies --   1328.2083              1343.8237              1346.2459
 Red. masses --      1.4629                 1.4170                 1.3096
 Frc consts  --      1.5205                 1.5076                 1.3984
 IR Inten    --      4.8201                 7.2329                 4.8216

                     55                     56                     57
                      A                      A                      A
 Frequencies --   1380.8885              1410.2388              1430.3500
 Red. masses --      2.4610                 1.7428                 1.7228
 Frc consts  --      2.7649                 2.0422                 2.0767
 IR Inten    --      0.7623                 1.5673                 4.9082

                     58                     59                     60
                      A                      A                      A
 Frequencies --   1468.3384              1504.5540              1538.4310
 Red. masses --      2.2308                 3.7789                 5.4643
 Frc consts  --      2.8338                 5.0400                 7.6197
 IR Inten    --      2.4877                 8.0270                 2.2164

                     61                     62                     63
                      A                      A                      A
 Frequencies --   1557.6123              1570.6091              1605.8331
 Red. masses --      5.6248                 4.8774                 4.5732
 Frc consts  --      8.0403                 7.0888                 6.9482
 IR Inten    --      0.0901                 8.3155                 4.6767

                     64                     65                     66
                      A                      A                      A
 Frequencies --   1627.7610              1658.9144              2120.6819
 Red. masses --      5.1142                 5.4453                11.8244
 Frc consts  --      7.9837                 8.8292                31.3314
 IR Inten    --      5.7960                 7.3324                 6.1222

                     67                     68                     69
                      A                      A                      A
 Frequencies --   3117.8580              3126.3953              3131.5488
 Red. masses --      1.0827                 1.0862                 1.0870
 Frc consts  --      6.2012                 6.2555                 6.2807
 IR Inten    --      5.2214                 5.1213                 6.1199

                     70                     71                     72
                      A                      A                      A
 Frequencies --   3144.9222              3145.7161              3146.9599
 Red. masses --      1.0870                 1.0862                 1.0865
 Frc consts  --      6.3343                 6.3331                 6.3396
 IR Inten    --      7.6424                 4.6121                12.6724

                     73                     74                     75
                      A                      A                      A
 Frequencies --   3148.7463              3163.7412              3166.6390
 Red. masses --      1.0861                 1.0932                 1.0848
 Frc consts  --      6.3445                 6.4468                 6.4092
 IR Inten    --     10.9952                35.8062                 0.9909

                     76                     77                     78
                      A                      A                      A
 Frequencies --   3177.8080              3191.6287              3202.3798
 Red. masses --      1.0871                 1.0933                 1.0972
 Frc consts  --      6.4679                 6.5620                 6.6295
 IR Inten    --     10.9584                23.0991                24.9449

 - Thermochemistry -
 -------------------
 Temperature   298.150 Kelvin.  Pressure   1.00000 Atm.
 Atom     1 has atomic number  6 and mass  12.00000

 Molecular mass:   204.09390 amu.
 Principal axes and moments of inertia in atomic units:
                           1         2         3
     Eigenvalues --  1670.593125145.327446705.35856
           X            0.99999   0.00338   0.00322
           Y           -0.00340   0.99998   0.00603
           Z           -0.00320  -0.00604   0.99998
 This molecule is an asymmetric top.
 Rotational symmetry number  1.
 Warning -- assumption of classical behavior for rotation
           may cause significant error
 Rotational temperatures (Kelvin)      0.05185     0.01683     0.01292
 Rotational constants (GHZ):           1.08030     0.35075     0.26915
 Zero-point vibrational energy     580872.2 (Joules/Mol)
                                  138.83178 (Kcal/Mol)
 Warning -- explicit consideration of  21 degrees of freedom as
           vibrations may cause significant error
 Vibrational temperatures:     80.46   122.10   145.12   202.27   229.72
          (Kelvin)            281.11   328.48   348.33   429.74   463.25
                              478.02   505.89   570.55   644.06   686.19
                              689.90   720.71   739.99   784.43   817.12
                              830.24   894.58   972.06  1048.70  1066.16
                             1099.23  1120.19  1181.46  1198.67  1216.64
                             1249.46  1260.13  1274.91  1316.26  1369.55
                             1375.23  1390.81  1406.08  1406.48  1476.14
                             1546.06  1618.43  1647.16  1671.44  1695.92
                             1722.77  1743.70  1758.65  1788.88  1822.38
                             1874.41  1911.00  1933.46  1936.95  1986.79
                             2029.02  2057.95  2112.61  2164.72  2213.46
                             2241.06  2259.76  2310.44  2341.99  2386.81
                             3051.19  4485.90  4498.19  4505.60  4524.84
                             4525.98  4527.77  4530.34  4551.92  4556.09
                             4572.16  4592.04  4607.51

 Zero-point correction=                           0.221243 (Hartree/Particle)
 Thermal correction to Energy=                    0.234462
 Thermal correction to Enthalpy=                  0.235406
 Thermal correction to Gibbs Free Energy=         0.181888
 Sum of electronic and zero-point Energies=           -616.569522
 Sum of electronic and thermal Energies=              -616.556302
 Sum of electronic and thermal Enthalpies=            -616.555358
 Sum of electronic and thermal Free Energies=         -616.608877

                     E (Thermal)             CV                S
                      KCal/Mol        Cal/Mol-Kelvin    Cal/Mol-Kelvin
 Total                  147.127             53.422            112.640
 Electronic               0.000              0.000              0.000
 Translational            0.889              2.981             41.845
 Rotational               0.889              2.981             32.422
 Vibrational            145.350             47.461             38.374
 Vibration     1          0.596              1.975              4.596
 Vibration     2          0.601              1.960              3.775
 Vibration     3          0.604              1.948              3.438
 Vibration     4          0.615              1.913              2.796
 Vibration     5          0.622              1.892              2.554
 Vibration     6          0.636              1.846              2.176
 Vibration     7          0.651              1.798              1.892
 Vibration     8          0.658              1.776              1.787
 Vibration     9          0.692              1.676              1.424
 Vibration    10          0.707              1.631              1.300
 Vibration    11          0.714              1.611              1.249
 Vibration    12          0.728              1.572              1.159
 Vibration    13          0.763              1.478              0.975
 Vibration    14          0.807              1.366              0.803
 Vibration    15          0.833              1.301              0.718
 Vibration    16          0.836              1.296              0.711
 Vibration    17          0.856              1.248              0.656
 Vibration    18          0.869              1.218              0.623
 Vibration    19          0.900              1.150              0.554
 Vibration    20          0.924              1.101              0.508
 Vibration    21          0.934              1.081              0.491

                           ! Non-Optimized Parameters !
 Normal termination of Gaussian 16 at Tue May 16 15:14:25 2023.
