 Gaussian 16, Revision A.03,
 Gaussian 16:  ES64L-G16RevA.03 25-Dec-2016

 -----------------------------
 # opt freq b3lyp/6-31g(2df,p)
 -----------------------------

 -------------------
 Title Card Required
 -------------------
 Symbolic Z-matrix:
 Charge =  0 Multiplicity = 1

 SCF Done:  E(RB3LYP) =  -633.902786228     A.U. after   16 cycles
 SCF Done:  E(RB3LYP) =  -633.946689325     A.U. after   13 cycles
 SCF Done:  E(RB3LYP) =  -633.969051794     A.U. after   15 cycles
 SCF Done:  E(RB3LYP) =  -633.985838909     A.U. after   15 cycles
 SCF Done:  E(RB3LYP) =  -634.007037648     A.U. after   15 cycles
 SCF Done:  E(RB3LYP) =  -634.024338126     A.U. after   15 cycles
 SCF Done:  E(RB3LYP) =  -634.039746217     A.U. after   15 cycles
 SCF Done:  E(RB3LYP) =  -634.048841664     A.U. after   15 cycles
 SCF Done:  E(RB3LYP) =  -634.050550413     A.U. after   13 cycles
 SCF Done:  E(RB3LYP) =  -634.050995493     A.U. after   12 cycles
 SCF Done:  E(RB3LYP) =  -634.051112300     A.U. after   11 cycles
 SCF Done:  E(RB3LYP) =  -634.051144433     A.U. after   10 cycles
 SCF Done:  E(RB3LYP) =  -634.051152950     A.U. after   10 cycles
 SCF Done:  E(RB3LYP) =  -634.051154997     A.U. after    8 cycles
 SCF Done:  E(RB3LYP) =  -634.051155645     A.U. after    8 cycles
 Optimization completed.
    -- Stationary point found.
 Normal termination of Gaussian 16 at Thu May 18 11:02:48 2023.

 ----------------------------------------------------------------------
 #N Geom=AllCheck Guess=TCheck SCRF=Check GenChk RB3LYP/6-31G(2df,p) Fr
 eq
 ----------------------------------------------------------------------

 Structure from the checkpoint file:  "C1dCCdCCdC2CdCCdC2CdNCdCCdC1.chk"
 -------------------
 Title Card Required
 -------------------
 Charge =  0 Multiplicity = 1

                         Standard orientation:
 ---------------------------------------------------------------------
 Center     Atomic      Atomic             Coordinates (Angstroms)
 Number     Number       Type             X           Y           Z
 ---------------------------------------------------------------------
      1          6           0       -3.100580    1.270335    0.466779
      2          6           0       -2.041429    1.473988   -0.338235
      3          6           0       -0.806150    2.162394   -0.009943
      4          6           0        0.331191    1.635750   -0.519646
      5          6           0        1.723951    1.789454   -0.131329
      6          6           0        2.522914    0.696791    0.018193
      7          6           0        3.984148    0.647248    0.032691
      8          6           0        4.359737   -0.656955    0.015475
      9          6           0        3.167790   -1.504205    0.072961
     10          6           0        2.058515   -0.715835    0.081865
     11          6           0        0.670020   -1.009784    0.438352
     12          7           0       -0.169904   -1.784286   -0.145728
     13          6           0       -1.485737   -1.578494    0.298527
     14          6           0       -2.555690   -1.659813   -0.504087
     15          6           0       -3.860009   -1.057596   -0.173880
     16          6           0       -4.090796    0.204198    0.252654
     17          1           0       -3.211630    1.861610    1.376009
     18          1           0       -1.985170    0.866852   -1.237747
     19          1           0       -0.793976    2.918790    0.772155
     20          1           0        0.179248    0.831313   -1.234155
     21          1           0        2.147970    2.783841    0.000537
     22          1           0        4.625159    1.513937   -0.053894
     23          1           0        5.373182   -1.032836   -0.033613
     24          1           0        3.176971   -2.581107    0.176886
     25          1           0        0.315402   -0.363055    1.256376
     26          1           0       -1.611538   -1.153722    1.298728
     27          1           0       -2.438420   -2.105946   -1.490339
     28          1           0       -4.735352   -1.690536   -0.320014
     29          1           0       -5.119766    0.456010    0.506904
 ---------------------------------------------------------------------

 SCF Done:  E(RB3LYP) =  -634.051155645     A.U. after    1 cycles

 The electronic state is 1-A.
 Alpha  occ. eigenvalues --  -14.32299 -10.22556 -10.21568 -10.20970 -10.20414
 Alpha  occ. eigenvalues --  -10.19895 -10.19857 -10.19679 -10.19637 -10.19479
 Alpha  occ. eigenvalues --  -10.19316 -10.18770 -10.18507 -10.18335 -10.18021
 Alpha  occ. eigenvalues --  -10.18017  -0.92628  -0.86769  -0.83381  -0.80956
 Alpha  occ. eigenvalues --   -0.77608  -0.75009  -0.72544  -0.70031  -0.66097
 Alpha  occ. eigenvalues --   -0.61735  -0.60983  -0.56903  -0.56271  -0.54089
 Alpha  occ. eigenvalues --   -0.52753  -0.51135  -0.50178  -0.48468  -0.47408
 Alpha  occ. eigenvalues --   -0.45773  -0.43794  -0.43275  -0.40308  -0.39801
 Alpha  occ. eigenvalues --   -0.39341  -0.38459  -0.37508  -0.37054  -0.36580
 Alpha  occ. eigenvalues --   -0.35787  -0.35183  -0.34061  -0.32339  -0.28901
 Alpha  occ. eigenvalues --   -0.27262  -0.25325  -0.23788  -0.21508  -0.19336
 Alpha virt. eigenvalues --   -0.09130  -0.03569  -0.01524   0.01414   0.05097
 Alpha virt. eigenvalues --    0.07534   0.07660   0.09758   0.10767   0.12126
 Alpha virt. eigenvalues --    0.12628   0.13168   0.14185   0.15239   0.16040

 Mulliken charges:
               1
     1  C   -0.136292
     2  C   -0.040462
     3  C   -0.113599
     4  C   -0.084364
     5  C   -0.235048
     6  C    0.252423
     7  C   -0.197427
     8  C   -0.107392
     9  C   -0.213241
    10  C    0.124934
    11  C   -0.078989
    12  N   -0.206706
    13  C    0.033899
    14  C   -0.179470
    15  C   -0.081614
    16  C   -0.076602
    17  H    0.093777
    18  H    0.106353
    19  H    0.101823
    20  H    0.132088
    21  H    0.112736
    22  H    0.101029
    23  H    0.102272
    24  H    0.111859
    25  H    0.094167
    26  H    0.086074
    27  H    0.104013
    28  H    0.098435
    29  H    0.095324
 Sum of Mulliken charges =  -0.00000

 Dipole moment (field-independent basis, Debye):
    X=             -0.3425    Y=              2.0672    Z=              1.0224  Tot=              2.3315
 Quadrupole moment (field-independent basis, Debye-Ang):
   XX=            -83.6531   YY=            -90.8507   ZZ=            -93.2493
   XY=              0.7658   XZ=             -0.8339   YZ=              1.4813

  Exact polarizability: 327.741 -12.472 169.146  -3.222  11.166  90.480
 Approx polarizability: 559.828 -48.126 318.989  -5.735  22.358 165.994

                      1                      2                      3
                      A                      A                      A
 Frequencies --     77.5100                99.4729               102.6005
 Red. masses --      4.6340                 4.2038                 3.8011
 Frc consts  --      0.0164                 0.0245                 0.0236
 IR Inten    --      0.5225                 2.1563                 1.1963

                      4                      5                      6
                      A                      A                      A
 Frequencies --    156.3897               168.6025               174.8628
 Red. masses --      2.6917                 4.6401                 3.2783
 Frc consts  --      0.0388                 0.0777                 0.0591
 IR Inten    --      1.0633                 5.3095                 1.4634

                      7                      8                      9
                      A                      A                      A
 Frequencies --    194.7689               252.1586               262.6447
 Red. masses --      3.3005                 3.7706                 2.3152
 Frc consts  --      0.0738                 0.1413                 0.0941
 IR Inten    --      0.2434                 2.0020                 1.9073

                     10                     11                     12
                      A                      A                      A
 Frequencies --    274.1249               293.3081               332.7614
 Red. masses --      2.8774                 3.7611                 3.3126
 Frc consts  --      0.1274                 0.1906                 0.2161
 IR Inten    --      6.3295                 7.1452                 1.7737

                     13                     14                     15
                      A                      A                      A
 Frequencies --    353.7119               395.7243               410.8900
 Red. masses --      3.4722                 4.2319                 3.4328
 Frc consts  --      0.2560                 0.3905                 0.3415
 IR Inten    --      3.5028                 0.7799                 1.8699

                     16                     17                     18
                      A                      A                      A
 Frequencies --    423.0896               473.1505               506.2007
 Red. masses --      4.1064                 3.3016                 4.3526
 Frc consts  --      0.4331                 0.4355                 0.6571
 IR Inten    --      2.5182                 1.4072                 5.9045

                     19                     20                     21
                      A                      A                      A
 Frequencies --    561.2314               578.4162               616.3564
 Red. masses --      3.1600                 3.3568                 4.4385
 Frc consts  --      0.5864                 0.6617                 0.9935
 IR Inten    --      0.6182                 3.2779                 0.6656

                     22                     23                     24
                      A                      A                      A
 Frequencies --    679.9457               717.6242               727.2093
 Red. masses --      2.8215                 3.7367                 1.7404
 Frc consts  --      0.7686                 1.1338                 0.5423
 IR Inten    --      8.5784                10.6558                18.7540

                     25                     26                     27
                      A                      A                      A
 Frequencies --    766.3721               790.9495               813.5713
 Red. masses --      1.6035                 2.2488                 4.7916
 Frc consts  --      0.5549                 0.8289                 1.8686
 IR Inten    --     27.3227                 7.1039                 9.8481

                     28                     29                     30
                      A                      A                      A
 Frequencies --    852.9838               860.5453               882.8314
 Red. masses --      1.8250                 1.8997                 1.7653
 Frc consts  --      0.7823                 0.8289                 0.8106
 IR Inten    --     11.1345                32.7900                55.4973

                     31                     32                     33
                      A                      A                      A
 Frequencies --    895.8129               899.8258               916.6608
 Red. masses --      2.3073                 2.2486                 1.9582
 Frc consts  --      1.0909                 1.0727                 0.9695
 IR Inten    --     23.6953                 7.5109                 5.6231

                     34                     35                     36
                      A                      A                      A
 Frequencies --    923.5476               939.0380               971.6701
 Red. masses --      1.4387                 2.3232                 1.4349
 Frc consts  --      0.7230                 1.2070                 0.7982
 IR Inten    --      2.7385                 9.0484                15.4886

                     37                     38                     39
                      A                      A                      A
 Frequencies --    987.1701              1001.3795              1005.2641
 Red. masses --      1.1907                 1.6247                 1.3151
 Frc consts  --      0.6837                 0.9599                 0.7830
 IR Inten    --     13.9289                16.1776                 5.7465

                     40                     41                     42
                      A                      A                      A
 Frequencies --   1025.7167              1037.4186              1056.9033
 Red. masses --      1.5450                 1.6263                 1.2915
 Frc consts  --      0.9577                 1.0312                 0.8500
 IR Inten    --     12.8708                15.6053                40.7352

                     43                     44                     45
                      A                      A                      A
 Frequencies --   1086.9171              1113.6966              1130.6877
 Red. masses --      2.0724                 1.7057                 4.7087
 Frc consts  --      1.4425                 1.2465                 3.5468
 IR Inten    --     14.5210                20.2767                 9.7162

                     46                     47                     48
                      A                      A                      A
 Frequencies --   1137.9789              1153.0332              1199.1882
 Red. masses --      2.3941                 2.7776                 2.1666
 Frc consts  --      1.8267                 2.1757                 1.8357
 IR Inten    --     12.8491                21.9356                 4.3698

                     49                     50                     51
                      A                      A                      A
 Frequencies --   1237.6994              1246.4499              1270.5093
 Red. masses --      1.1473                 1.4310                 1.5536
 Frc consts  --      1.0355                 1.3099                 1.4776
 IR Inten    --      1.5442                 3.8493                 9.1975

                     52                     53                     54
                      A                      A                      A
 Frequencies --   1287.7341              1317.5475              1335.2242
 Red. masses --      1.4023                 1.7493                 1.4651
 Frc consts  --      1.3701                 1.7892                 1.5390
 IR Inten    --      4.8212                 1.7468                23.3055

                     55                     56                     57
                      A                      A                      A
 Frequencies --   1345.8881              1353.8284              1373.2941
 Red. masses --      1.6030                 1.1962                 1.6983
 Frc consts  --      1.7108                 1.2918                 1.8871
 IR Inten    --      1.2118                 5.0692                21.9110

                     58                     59                     60
                      A                      A                      A
 Frequencies --   1398.3662              1424.7263              1438.4554
 Red. masses --      1.2787                 1.4864                 1.3620
 Frc consts  --      1.4732                 1.7777                 1.6604
 IR Inten    --      2.0532                 4.8311                 5.6482

                     61                     62                     63
                      A                      A                      A
 Frequencies --   1522.3253              1613.5204              1615.5624
 Red. masses --      6.1800                 7.9534                 5.6007
 Frc consts  --      8.4383                12.1997                 8.6127
 IR Inten    --     57.8764                28.6669                 2.0732

                     64                     65                     66
                      A                      A                      A
 Frequencies --   1628.5439              1643.6909              1650.7855
 Red. masses --      5.7336                 5.9228                 7.2816
 Frc consts  --      8.9593                 9.4280                11.6911
 IR Inten    --     22.2489                56.1295               217.2252

                     67                     68                     69
                      A                      A                      A
 Frequencies --   1673.8972              1702.0542              2976.9861
 Red. masses --      5.3986                 6.3486                 1.0808
 Frc consts  --      8.9124                10.8362                 5.6434
 IR Inten    --      7.8519                10.2001                25.3844

                     70                     71                     72
                      A                      A                      A
 Frequencies --   3073.0615              3113.5523              3121.9271
 Red. masses --      1.0870                 1.0814                 1.0873
 Frc consts  --      6.0483                 6.1764                 6.2437
 IR Inten    --     20.4852                 0.8974                19.0835

                     73                     74                     75
                      A                      A                      A
 Frequencies --   3137.9275              3138.5251              3143.4481
 Red. masses --      1.0893                 1.0883                 1.0897
 Frc consts  --      6.3194                 6.3162                 6.3439
 IR Inten    --     54.2682                 9.2909                24.3942

                     76                     77                     78
                      A                      A                      A
 Frequencies --   3152.2341              3156.6296              3166.8936
 Red. masses --      1.0901                 1.0857                 1.0856
 Frc consts  --      6.3818                 6.3740                 6.4150
 IR Inten    --      7.6049                 3.1315                15.8734

                     79                     80                     81
                      A                      A                      A
 Frequencies --   3211.8622              3225.2097              3237.8939
 Red. masses --      1.0865                 1.0937                 1.1043
 Frc consts  --      6.6038                 6.7030                 6.8213
 IR Inten    --      2.3764                 7.1147                18.4212

 - Thermochemistry -
 -------------------
 Temperature   298.150 Kelvin.  Pressure   1.00000 Atm.
 Atom     1 has atomic number  6 and mass  12.00000

 Molecular mass:   207.10480 amu.
 Principal axes and moments of inertia in atomic units:
                           1         2         3
     Eigenvalues --  1508.847805469.863956786.50278
           X            1.00000   0.00169  -0.00121
           Y           -0.00168   0.99994   0.01125
           Z            0.00123  -0.01124   0.99994
 This molecule is an asymmetric top.
 Rotational symmetry number  1.
 Warning -- assumption of classical behavior for rotation
           may cause significant error
 Rotational temperatures (Kelvin)      0.05740     0.01583     0.01276
 Rotational constants (GHZ):           1.19611     0.32994     0.26593
 Zero-point vibrational energy     611400.4 (Joules/Mol)
                                  146.12821 (Kcal/Mol)
 Warning -- explicit consideration of  21 degrees of freedom as
           vibrations may cause significant error
 Vibrational temperatures:    111.52   143.12   147.62   225.01   242.58
          (Kelvin)            251.59   280.23   362.80   377.89   394.40
                              422.00   478.77   508.91   569.36   591.18
                              608.73   680.76   728.31   807.49   832.21
                              886.80   978.29  1032.50  1046.29  1102.64
                             1138.00  1170.55  1227.25  1238.13  1270.20
                             1288.87  1294.65  1318.87  1328.78  1351.07
                             1398.02  1420.32  1440.76  1446.35  1475.78
                             1492.61  1520.65  1563.83  1602.36  1626.81
                             1637.30  1658.96  1725.36  1780.77  1793.36
                             1827.98  1852.76  1895.66  1921.09  1936.43
                             1947.86  1975.86  2011.94  2049.86  2069.62
                             2190.29  2321.50  2324.43  2343.11  2364.90
                             2375.11  2408.36  2448.88  4283.22  4421.45
                             4479.71  4491.76  4514.78  4515.64  4522.72
                             4535.36  4541.69  4556.45  4621.15  4640.36
                             4658.61

 Zero-point correction=                           0.232870 (Hartree/Particle)
 Thermal correction to Energy=                    0.246338
 Thermal correction to Enthalpy=                  0.247282
 Thermal correction to Gibbs Free Energy=         0.193564
 Sum of electronic and zero-point Energies=           -633.818286
 Sum of electronic and thermal Energies=              -633.804818
 Sum of electronic and thermal Enthalpies=            -633.803874
 Sum of electronic and thermal Free Energies=         -633.857592

                     E (Thermal)             CV                S
                      KCal/Mol        Cal/Mol-Kelvin    Cal/Mol-Kelvin
 Total                  154.579             54.035            113.059
 Electronic               0.000              0.000              0.000
 Translational            0.889              2.981             41.888
 Rotational               0.889              2.981             32.393
 Vibrational            152.802             48.073             38.777
 Vibration     1          0.599              1.964              3.953
 Vibration     2          0.604              1.949              3.465
 Vibration     3          0.605              1.947              3.404
 Vibration     4          0.620              1.896              2.593
 Vibration     5          0.625              1.881              2.451
 Vibration     6          0.627              1.873              2.383
 Vibration     7          0.635              1.847              2.182
 Vibration     8          0.664              1.759              1.715
 Vibration     9          0.670              1.741              1.644
 Vibration    10          0.676              1.721              1.570
 Vibration    11          0.688              1.686              1.455
 Vibration    12          0.715              1.610              1.247
 Vibration    13          0.730              1.568              1.150
 Vibration    14          0.762              1.479              0.978
 Vibration    15          0.775              1.447              0.923
 Vibration    16          0.785              1.420              0.882
 Vibration    17          0.830              1.310              0.729
 Vibration    18          0.861              1.236              0.643
 Vibration    19          0.917              1.115              0.521
 Vibration    20          0.935              1.078              0.488
 Vibration    21          0.976              0.997              0.422

                           ! Non-Optimized Parameters !
 Normal termination of Gaussian 16 at Thu May 18 13:18:55 2023.
