 Gaussian 16, Revision A.03,
 Gaussian 16:  ES64L-G16RevA.03 25-Dec-2016

 -----------------------------
 # opt freq b3lyp/6-31g(2df,p)
 -----------------------------

 -------------------
 Title Card Required
 -------------------
 Symbolic Z-matrix:
 Charge =  0 Multiplicity = 1

 SCF Done:  E(RB3LYP) =  -1313.91815090     A.U. after   30 cycles
 SCF Done:  E(RB3LYP) =  -1314.04084370     A.U. after   22 cycles
 SCF Done:  E(RB3LYP) =  -1314.21564458     A.U. after   28 cycles
 SCF Done:  E(RB3LYP) =  -1314.36381975     A.U. after   23 cycles
 SCF Done:  E(RB3LYP) =  -1314.50498952     A.U. after   25 cycles
 SCF Done:  E(RB3LYP) =  -1314.58077878     A.U. after   21 cycles
 SCF Done:  E(RB3LYP) =  -1314.68540135     A.U. after   17 cycles
 SCF Done:  E(RB3LYP) =  -1314.70897351     A.U. after   20 cycles
 SCF Done:  E(RB3LYP) =  -1314.76648194     A.U. after   18 cycles
 SCF Done:  E(RB3LYP) =  -1314.77466618     A.U. after   18 cycles
 SCF Done:  E(RB3LYP) =  -1314.91670104     A.U. after   13 cycles
 SCF Done:  E(RB3LYP) =  -1314.91675409     A.U. after   12 cycles
 SCF Done:  E(RB3LYP) =  -1314.91679557     A.U. after   13 cycles
 SCF Done:  E(RB3LYP) =  -1314.91680788     A.U. after   12 cycles
 SCF Done:  E(RB3LYP) =  -1314.91681456     A.U. after   11 cycles
 SCF Done:  E(RB3LYP) =  -1314.91681631     A.U. after    8 cycles
 SCF Done:  E(RB3LYP) =  -1314.91681673     A.U. after    9 cycles
 SCF Done:  E(RB3LYP) =  -1314.91681691     A.U. after    8 cycles
 SCF Done:  E(RB3LYP) =  -1314.91681716     A.U. after    8 cycles
 Optimization completed.
    -- Stationary point found.
 Normal termination of Gaussian 16 at Fri May 19 14:08:56 2023.

 ----------------------------------------------------------------------
 #N Geom=AllCheck Guess=TCheck SCRF=Check GenChk RB3LYP/6-31G(2df,p) Fr
 eq
 ----------------------------------------------------------------------

 Structure from the checkpoint file:  "C1dCCdC2CdCNdCSCSCdC2CdC1.chk"
 -------------------
 Title Card Required
 -------------------
 Charge =  0 Multiplicity = 1

                         Standard orientation:
 ---------------------------------------------------------------------
 Center     Atomic      Atomic             Coordinates (Angstroms)
 Number     Number       Type             X           Y           Z
 ---------------------------------------------------------------------
      1          6           0       -4.686802   -1.210524    0.146506
      2          6           0       -3.525775   -1.903519    0.275534
      3          6           0       -2.165536   -1.407858    0.276405
      4          6           0       -1.852440   -0.108271    0.166378
      5          6           0       -0.554833    0.726446    0.148423
      6          6           0        0.325501    0.419668   -1.016747
      7          7           0        1.530205    0.050424   -0.889473
      8          6           0        2.538382   -0.473093   -1.530144
      9         16           0        4.182709   -0.675778    0.359059
     10          6           0        3.892129    0.064032   -1.343050
     11         16           0        3.049814    0.476864    1.529517
     12          6           0       -1.518506    1.906339   -0.032753
     13          6           0       -2.628599    1.114093   -0.006951
     14          6           0       -4.059197    1.245484   -0.095884
     15          6           0       -4.929382    0.209359   -0.025710
     16          1           0       -5.594859   -1.807060    0.175901
     17          1           0       -3.623012   -2.979538    0.397354
     18          1           0       -1.369107   -2.138001    0.388643
     19          1           0        0.034689    0.682417    1.070215
     20          1           0       -0.105415    0.564864   -2.013542
     21          1           0        2.416555   -1.449782   -1.992201
     22          1           0        3.967525    1.147905   -1.273118
     23          1           0        4.617692   -0.362699   -2.035245
     24          1           0       -1.339992    2.966404   -0.142710
     25          1           0       -4.462595    2.245931   -0.229380
     26          1           0       -5.982929    0.466290   -0.108858
 ---------------------------------------------------------------------

 SCF Done:  E(RB3LYP) =  -1314.91681716     A.U. after    1 cycles

 The electronic state is 1-A.
 Alpha  occ. eigenvalues --  -88.89003 -88.82000 -14.38415 -10.26719 -10.25807
 Alpha  occ. eigenvalues --  -10.22674 -10.21881 -10.21520 -10.21181 -10.21057
 Alpha  occ. eigenvalues --  -10.20949 -10.20881 -10.20507 -10.20287 -10.19387
 Alpha  occ. eigenvalues --   -7.95039  -7.88498  -5.91498  -5.91128  -5.90672
 Alpha  occ. eigenvalues --   -5.85044  -5.84469  -5.84048  -0.97909  -0.89761
 Alpha  occ. eigenvalues --   -0.83368  -0.82171  -0.79131  -0.75636  -0.72678
 Alpha  occ. eigenvalues --   -0.70100  -0.67225  -0.63245  -0.60215  -0.57305
 Alpha  occ. eigenvalues --   -0.55994  -0.55197  -0.53881  -0.52017  -0.50984
 Alpha  occ. eigenvalues --   -0.47724  -0.45803  -0.45395  -0.44939  -0.42686
 Alpha  occ. eigenvalues --   -0.41631  -0.39911  -0.39521  -0.37301  -0.36690
 Alpha  occ. eigenvalues --   -0.36384  -0.33801  -0.33734  -0.31263  -0.31003
 Alpha  occ. eigenvalues --   -0.30381  -0.29490  -0.26434  -0.20608  -0.19945
 Alpha  occ. eigenvalues --   -0.16930
 Alpha virt. eigenvalues --   -0.07885  -0.07282  -0.03913  -0.01893   0.02802
 Alpha virt. eigenvalues --    0.05327   0.07506   0.10070   0.10964   0.11042
 Alpha virt. eigenvalues --    0.11789   0.12468   0.13445   0.13793   0.14535

 Mulliken charges:
               1
     1  C   -0.113581
     2  C   -0.067053
     3  C   -0.252074
     4  C    0.270447
     5  C   -0.235034
     6  C    0.031340
     7  N   -0.009077
     8  C   -0.029328
     9  S   -0.000567
    10  C   -0.264215
    11  S   -0.379480
    12  C   -0.304137
    13  C    0.282002
    14  C   -0.199159
    15  C   -0.082166
    16  H    0.099290
    17  H    0.105483
    18  H    0.109079
    19  H    0.142190
    20  H    0.128971
    21  H    0.145970
    22  H    0.155717
    23  H    0.139859
    24  H    0.116902
    25  H    0.104545
    26  H    0.104078
 Sum of Mulliken charges =  -0.00000

 Dipole moment (field-independent basis, Debye):
    X=             -4.7197    Y=             -0.6715    Z=             -4.9718  Tot=              6.8881
 Quadrupole moment (field-independent basis, Debye-Ang):
   XX=            -98.2686   YY=            -95.1656   ZZ=           -102.8732
   XY=             -1.5898   XZ=            -15.1263   YZ=             -0.5958

  Exact polarizability: 321.516   6.527 165.838  16.592   2.622 139.724
 Approx polarizability: 482.183  19.025 330.567  56.972  18.899 327.058

                      1                      2                      3
                      A                      A                      A
 Frequencies --     17.8678                40.2162                49.0516
 Red. masses --      6.2797                 7.2730                 5.7158
 Frc consts  --      0.0012                 0.0069                 0.0081
 IR Inten    --      1.4491                 0.8596                 2.1824

                      4                      5                      6
                      A                      A                      A
 Frequencies --     72.5518               111.3726               148.0126
 Red. masses --      7.1702                 6.5090                 7.1100
 Frc consts  --      0.0222                 0.0476                 0.0918
 IR Inten    --      0.4175                 3.2758                 4.8946

                      7                      8                      9
                      A                      A                      A
 Frequencies --    171.7298               209.9004               254.8215
 Red. masses --      3.7692                 6.6257                 3.4064
 Frc consts  --      0.0655                 0.1720                 0.1303
 IR Inten    --     13.4633                15.2826                 9.4056

                     10                     11                     12
                      A                      A                      A
 Frequencies --    281.0097               297.0226               328.3655
 Red. masses --      3.5160                 4.4084                 3.3250
 Frc consts  --      0.1636                 0.2291                 0.2112
 IR Inten    --      1.5225                19.6077                 6.6663

                     13                     14                     15
                      A                      A                      A
 Frequencies --    353.9503               379.2778               408.2765
 Red. masses --      5.3567                 2.9057                 5.4253
 Frc consts  --      0.3954                 0.2463                 0.5328
 IR Inten    --      0.8952                 8.4254                 7.0107

                     16                     17                     18
                      A                      A                      A
 Frequencies --    447.7905               460.1854               517.1209
 Red. masses --      3.2314                 3.7435                 3.5704
 Frc consts  --      0.3818                 0.4671                 0.5625
 IR Inten    --     36.7501                46.9658                22.7335

                     19                     20                     21
                      A                      A                      A
 Frequencies --    554.7873               568.6837               574.2095
 Red. masses --      4.4564                 6.1922                 6.5450
 Frc consts  --      0.8081                 1.1799                 1.2715
 IR Inten    --     18.8152                29.5935                 3.9094

                     22                     23                     24
                      A                      A                      A
 Frequencies --    600.5128               673.3498               728.8349
 Red. masses --      3.0685                 2.2785                 1.6123
 Frc consts  --      0.6520                 0.6087                 0.5046
 IR Inten    --      0.9578                30.4430                 6.6975

                     25                     26                     27
                      A                      A                      A
 Frequencies --    734.9603               750.2172               787.9104
 Red. masses --      1.6297                 2.1142                 1.9266
 Frc consts  --      0.5187                 0.7011                 0.7047
 IR Inten    --      7.8319                24.2610                27.8840

                     28                     29                     30
                      A                      A                      A
 Frequencies --    830.0575               861.2094               889.7622
 Red. masses --      4.2379                 1.5547                 4.9059
 Frc consts  --      1.7204                 0.6794                 2.2883
 IR Inten    --      0.1447                 2.4799                11.8330

                     31                     32                     33
                      A                      A                      A
 Frequencies --    898.6472               902.6802               915.6727
 Red. masses --      2.0959                 2.2050                 1.4874
 Frc consts  --      0.9972                 1.0586                 0.7348
 IR Inten    --     14.9804                 8.0312                 3.7558

                     34                     35                     36
                      A                      A                      A
 Frequencies --    928.0086               966.3293              1003.5711
 Red. masses --      1.8136                 2.1546                 1.2826
 Frc consts  --      0.9202                 1.1854                 0.7611
 IR Inten    --     23.1107                27.0114                 0.0753

                     37                     38                     39
                      A                      A                      A
 Frequencies --   1010.6062              1019.6388              1030.9412
 Red. masses --      1.7456                 1.3074                 2.7406
 Frc consts  --      1.0504                 0.8008                 1.7162
 IR Inten    --     21.9419                 0.0355                 0.0990

                     40                     41                     42
                      A                      A                      A
 Frequencies --   1067.6318              1101.5299              1145.2472
 Red. masses --      2.9724                 3.4185                 1.3758
 Frc consts  --      1.9962                 2.4439                 1.0632
 IR Inten    --      0.5250                14.4109                 0.7942

                     43                     44                     45
                      A                      A                      A
 Frequencies --   1162.3202              1179.9316              1201.6624
 Red. masses --      1.4420                 1.5025                 1.4062
 Frc consts  --      1.1478                 1.2325                 1.1964
 IR Inten    --     12.4968                 1.0241                10.4136

                     46                     47                     48
                      A                      A                      A
 Frequencies --   1220.2423              1228.9609              1262.4386
 Red. masses --      1.5354                 1.4127                 1.4494
 Frc consts  --      1.3470                 1.2571                 1.3610
 IR Inten    --     12.5911                 1.5139                13.9507

                     49                     50                     51
                      A                      A                      A
 Frequencies --   1287.4105              1294.8560              1357.7229
 Red. masses --      1.2379                 1.4117                 1.2413
 Frc consts  --      1.2089                 1.3946                 1.3482
 IR Inten    --      0.5617                 3.6426                26.4283

                     52                     53                     54
                      A                      A                      A
 Frequencies --   1399.4760              1430.0881              1451.3988
 Red. masses --      2.0829                 1.4720                 1.1478
 Frc consts  --      2.4035                 1.7737                 1.4246
 IR Inten    --     10.2093                 0.9768                 5.9241

                     55                     56                     57
                      A                      A                      A
 Frequencies --   1472.6168              1483.4791              1589.8287
 Red. masses --      1.6621                 2.3516                 7.6886
 Frc consts  --      2.1237                 3.0491                11.4498
 IR Inten    --      3.3446                 7.7045                10.2316

                     58                     59                     60
                      A                      A                      A
 Frequencies --   1604.2448              1681.3796              1713.9858
 Red. masses --      5.6977                 6.3184                 7.2142
 Frc consts  --      8.6395                10.5243                12.4868
 IR Inten    --     34.4889                36.9667                 8.6719

                     61                     62                     63
                      A                      A                      A
 Frequencies --   1816.4281              3058.1141              3065.3014
 Red. masses --     11.3530                 1.0847                 1.0855
 Frc consts  --     22.0697                 5.9770                 6.0094
 IR Inten    --    180.2994                24.9252                10.2912

                     64                     65                     66
                      A                      A                      A
 Frequencies --   3091.9517              3142.1663              3151.4502
 Red. masses --      1.0556                 1.0822                 1.0846
 Frc consts  --      5.9458                 6.2954                 6.3465
 IR Inten    --     16.8550                 2.3470                 0.9237

                     67                     68                     69
                      A                      A                      A
 Frequencies --   3154.0516              3164.1304              3171.1018
 Red. masses --      1.0902                 1.0894                 1.0918
 Frc consts  --      6.3900                 6.4262                 6.4686
 IR Inten    --      7.3061                16.3324                32.4560

                     70                     71                     72
                      A                      A                      A
 Frequencies --   3175.7476              3177.4953              3233.4715
 Red. masses --      1.1102                 1.0930                 1.0978
 Frc consts  --      6.5967                 6.5019                 6.7629
 IR Inten    --      1.7612                16.7219                 7.5756

 - Thermochemistry -
 -------------------
 Temperature   298.150 Kelvin.  Pressure   1.00000 Atm.
 Atom     1 has atomic number  6 and mass  12.00000

 Molecular mass:   233.03329 amu.
 Principal axes and moments of inertia in atomic units:
                           1         2         3
     Eigenvalues --  1432.766579218.074079436.06646
           X            0.99996   0.00267  -0.00877
           Y           -0.00290   0.99966  -0.02584
           Z            0.00870   0.02587   0.99963
 This molecule is an asymmetric top.
 Rotational symmetry number  1.
 Warning -- assumption of classical behavior for rotation
           may cause significant error
 Rotational temperatures (Kelvin)      0.06045     0.00940     0.00918
 Rotational constants (GHZ):           1.25962     0.19578     0.19126
 Zero-point vibrational energy     517486.4 (Joules/Mol)
                                  123.68223 (Kcal/Mol)
 Warning -- explicit consideration of  22 degrees of freedom as
           vibrations may cause significant error
 Vibrational temperatures:     25.71    57.86    70.57   104.39   160.24
          (Kelvin)            212.96   247.08   302.00   366.63   404.31
                              427.35   472.44   509.26   545.70   587.42
                              644.27   662.10   744.02   798.22   818.21
                              826.16   864.00   968.80  1048.63  1057.44
                             1079.40  1133.63  1194.27  1239.09  1280.17
                             1292.95  1298.76  1317.45  1335.20  1390.33
                             1443.91  1454.04  1467.03  1483.29  1536.08
                             1584.86  1647.76  1672.32  1697.66  1728.92
                             1755.66  1768.20  1816.37  1852.30  1863.01
                             1953.46  2013.53  2057.58  2088.24  2118.77
                             2134.40  2287.41  2308.15  2419.13  2466.04
                             2613.43  4399.94  4410.28  4448.63  4520.88
                             4534.23  4537.98  4552.48  4562.51  4569.19
                             4571.71  4652.24

 Zero-point correction=                           0.197100 (Hartree/Particle)
 Thermal correction to Energy=                    0.211307
 Thermal correction to Enthalpy=                  0.212251
 Thermal correction to Gibbs Free Energy=         0.153555
 Sum of electronic and zero-point Energies=          -1314.719717
 Sum of electronic and thermal Energies=             -1314.705510
 Sum of electronic and thermal Enthalpies=           -1314.704566
 Sum of electronic and thermal Free Energies=        -1314.763262

                     E (Thermal)             CV                S
                      KCal/Mol        Cal/Mol-Kelvin    Cal/Mol-Kelvin
 Total                  132.597             53.388            123.538
 Electronic               0.000              0.000              0.000
 Translational            0.889              2.981             42.240
 Rotational               0.889              2.981             33.188
 Vibrational            130.820             47.426             48.110
 Vibration     1          0.593              1.986              6.858
 Vibration     2          0.594              1.981              5.248
 Vibration     3          0.595              1.978              4.855
 Vibration     4          0.599              1.967              4.083
 Vibration     5          0.607              1.940              3.245
 Vibration     6          0.617              1.905              2.698
 Vibration     7          0.626              1.877              2.416
 Vibration     8          0.642              1.826              2.045
 Vibration     9          0.665              1.755              1.697
 Vibration    10          0.681              1.709              1.528
 Vibration    11          0.691              1.679              1.434
 Vibration    12          0.712              1.619              1.268
 Vibration    13          0.730              1.567              1.149
 Vibration    14          0.749              1.514              1.042
 Vibration    15          0.773              1.452              0.933
 Vibration    16          0.807              1.366              0.802
 Vibration    17          0.818              1.338              0.766
 Vibration    18          0.872              1.212              0.617
 Vibration    19          0.910              1.129              0.534
 Vibration    20          0.925              1.099              0.507
 Vibration    21          0.931              1.087              0.496
 Vibration    22          0.959              1.031              0.449

                           ! Non-Optimized Parameters !
 Normal termination of Gaussian 16 at Fri May 19 15:46:56 2023.
