 Gaussian 16, Revision A.03,
 Gaussian 16:  ES64L-G16RevA.03 25-Dec-2016

 -----------------------------
 # opt freq b3lyp/6-31g(2df,p)
 -----------------------------

 -------------------
 Title Card Required
 -------------------
 Symbolic Z-matrix:
 Charge =  0 Multiplicity = 1

 SCF Done:  E(RB3LYP) =  -500.817371424     A.U. after   21 cycles
 SCF Done:  E(RB3LYP) =  -500.903620493     A.U. after   15 cycles
 SCF Done:  E(RB3LYP) =  -501.003907116     A.U. after   13 cycles
 SCF Done:  E(RB3LYP) =  -501.067788037     A.U. after   13 cycles
 SCF Done:  E(RB3LYP) =  -501.075608138     A.U. after   12 cycles
 SCF Done:  E(RB3LYP) =  -501.077066415     A.U. after   10 cycles
 SCF Done:  E(RB3LYP) =  -501.080438852     A.U. after   11 cycles
 SCF Done:  E(RB3LYP) =  -501.056472041     A.U. after   13 cycles
 SCF Done:  E(RB3LYP) =  -501.091871782     A.U. after   12 cycles
 SCF Done:  E(RB3LYP) =  -501.089429377     A.U. after   12 cycles
 SCF Done:  E(RB3LYP) =  -501.218826013     A.U. after   10 cycles
 SCF Done:  E(RB3LYP) =  -501.218878568     A.U. after   11 cycles
 SCF Done:  E(RB3LYP) =  -501.218914411     A.U. after   10 cycles
 SCF Done:  E(RB3LYP) =  -501.218966793     A.U. after   10 cycles
 SCF Done:  E(RB3LYP) =  -501.218987484     A.U. after   10 cycles
 SCF Done:  E(RB3LYP) =  -501.218992975     A.U. after    9 cycles
 SCF Done:  E(RB3LYP) =  -501.218994701     A.U. after    8 cycles
 SCF Done:  E(RB3LYP) =  -501.218995260     A.U. after    8 cycles
 SCF Done:  E(RB3LYP) =  -501.218995392     A.U. after    7 cycles
 Optimization completed.
    -- Stationary point found.
 Normal termination of Gaussian 16 at Wed May 17 21:12:27 2023.

 ----------------------------------------------------------------------
 #N Geom=AllCheck Guess=TCheck SCRF=Check GenChk RB3LYP/6-31G(2df,p) Fr
 eq
 ----------------------------------------------------------------------

 Structure from the checkpoint file:  "C1dCC2dCCdC3CdC3CCdCC2dC1.chk"
 -------------------
 Title Card Required
 -------------------
 Charge =  0 Multiplicity = 1

                         Standard orientation:
 ---------------------------------------------------------------------
 Center     Atomic      Atomic             Coordinates (Angstroms)
 Number     Number       Type             X           Y           Z
 ---------------------------------------------------------------------
      1          6           0        3.373900   -0.525351    0.427198
      2          6           0        2.410412   -1.446237    0.095567
      3          6           0        1.236662   -0.717140   -0.298088
      4          6           0       -0.044570   -1.001301   -0.650203
      5          6           0       -1.050566   -1.983358   -0.370510
      6          6           0       -2.149373   -1.284459    0.008988
      7          6           0       -3.345841   -0.838985    0.618015
      8          6           0       -2.492443    0.091213    0.187540
      9          6           0       -2.120745    1.518872    0.013713
     10          6           0       -0.717622    2.132674   -0.138577
     11          6           0        0.611245    1.849506   -0.189345
     12          6           0        1.527311    0.719042   -0.136378
     13          6           0        2.831011    0.803427    0.307769
     14          1           0        4.386077   -0.750922    0.738442
     15          1           0        2.529140   -2.519554    0.043397
     16          1           0       -0.510120   -0.110863   -1.052629
     17          1           0       -0.902467   -3.039388   -0.193005
     18          1           0       -4.254039   -1.086420    1.144820
     19          1           0       -2.615221    2.074970    0.822899
     20          1           0       -2.678472    1.833110   -0.885751
     21          1           0       -0.902190    3.204307   -0.214531
     22          1           0        1.187235    2.774388   -0.253111
     23          1           0        3.343777    1.712960    0.595328
 ---------------------------------------------------------------------

 SCF Done:  E(RB3LYP) =  -501.218995392     A.U. after    1 cycles

 The electronic state is 1-A.
 Alpha  occ. eigenvalues --  -10.25117 -10.24803 -10.23628 -10.23225 -10.19176
 Alpha  occ. eigenvalues --  -10.19037 -10.18657 -10.18108 -10.16309 -10.16278
 Alpha  occ. eigenvalues --  -10.15732 -10.15427 -10.15283  -0.93825  -0.84668
 Alpha  occ. eigenvalues --   -0.79898  -0.78725  -0.74047  -0.70217  -0.67465
 Alpha  occ. eigenvalues --   -0.60160  -0.59584  -0.58224  -0.52912  -0.51310
 Alpha  occ. eigenvalues --   -0.50361  -0.48559  -0.46688  -0.46048  -0.42349
 Alpha  occ. eigenvalues --   -0.41851  -0.40668  -0.38842  -0.38014  -0.36474
 Alpha  occ. eigenvalues --   -0.35393  -0.34492  -0.33241  -0.32404  -0.30756
 Alpha  occ. eigenvalues --   -0.26884  -0.25964  -0.18967  -0.17775
 Alpha virt. eigenvalues --   -0.04679  -0.03036   0.01693   0.05131   0.07553
 Alpha virt. eigenvalues --    0.10232   0.11361   0.11695   0.13078   0.13668
 Alpha virt. eigenvalues --    0.15298   0.15673   0.17080   0.17621   0.18314

 Mulliken charges:
               1
     1  C   -0.106757
     2  C   -0.263847
     3  C    0.179655
     4  C   -0.122352
     5  C   -0.386941
     6  C    0.328532
     7  C   -0.381323
     8  C    0.330716
     9  C   -0.440803
    10  C   -0.104843
    11  C   -0.126931
    12  C    0.198599
    13  C   -0.228104
    14  H    0.084766
    15  H    0.085644
    16  H    0.107171
    17  H    0.105368
    18  H    0.168761
    19  H    0.148191
    20  H    0.163490
    21  H    0.089499
    22  H    0.091210
    23  H    0.080300
 Sum of Mulliken charges =  -0.00000

 Dipole moment (field-independent basis, Debye):
    X=             -4.6176    Y=              0.6224    Z=              0.8142  Tot=              4.7300
 Quadrupole moment (field-independent basis, Debye-Ang):
   XX=            -63.6309   YY=            -69.7967   ZZ=            -77.3785
   XY=             -0.4345   XZ=             -1.7189   YZ=             -1.2267

  Exact polarizability: 234.398  -1.217 147.935   3.741   0.192  66.404
 Approx polarizability: 436.768   0.697 251.258  17.075   3.850 118.437

                      1                      2                      3
                      A                      A                      A
 Frequencies --     58.3927                74.0474               168.7649
 Red. masses --      3.2847                 2.6175                 3.5852
 Frc consts  --      0.0066                 0.0085                 0.0602
 IR Inten    --      2.8407                 0.8391                 4.3057

                      4                      5                      6
                      A                      A                      A
 Frequencies --    209.7145               234.3569               285.5559
 Red. masses --      4.2244                 4.6743                 4.3094
 Frc consts  --      0.1095                 0.1513                 0.2070
 IR Inten    --      0.4217                 0.6015                 1.0572

                      7                      8                      9
                      A                      A                      A
 Frequencies --    293.1592               362.0114               434.3766
 Red. masses --      2.7428                 4.4987                 3.5995
 Frc consts  --      0.1389                 0.3474                 0.4002
 IR Inten    --      7.3977                 3.6414                 7.2557

                     10                     11                     12
                      A                      A                      A
 Frequencies --    465.0106               495.6964               519.2894
 Red. masses --      2.7697                 4.4956                 3.8768
 Frc consts  --      0.3529                 0.6508                 0.6159
 IR Inten    --      8.5727                 2.4249                 7.0474

                     13                     14                     15
                      A                      A                      A
 Frequencies --    547.0417               582.5452               603.1381
 Red. masses --      4.4801                 4.4483                 3.1062
 Frc consts  --      0.7899                 0.8894                 0.6657
 IR Inten    --      1.6447                11.6174                 4.7043

                     16                     17                     18
                      A                      A                      A
 Frequencies --    673.0339               692.3247               731.9097
 Red. masses --      2.1739                 4.5018                 1.6338
 Frc consts  --      0.5802                 1.2713                 0.5157
 IR Inten    --      4.3065                 8.2608                10.2867

                     19                     20                     21
                      A                      A                      A
 Frequencies --    759.2932               774.8536               785.4705
 Red. masses --      1.7196                 1.7395                 1.5131
 Frc consts  --      0.5841                 0.6153                 0.5500
 IR Inten    --     72.5299                25.6940                16.1465

                     22                     23                     24
                      A                      A                      A
 Frequencies --    807.0632               816.1550               844.6482
 Red. masses --      2.6152                 3.5366                 1.7425
 Frc consts  --      1.0036                 1.3880                 0.7324
 IR Inten    --     14.0571                 9.6162                13.9684

                     25                     26                     27
                      A                      A                      A
 Frequencies --    850.6765               899.4825               902.8205
 Red. masses --      4.1555                 1.4641                 2.5250
 Frc consts  --      1.7718                 0.6979                 1.2126
 IR Inten    --      3.0606                 1.7070                12.3619

                     28                     29                     30
                      A                      A                      A
 Frequencies --    912.9779               965.0310              1002.1816
 Red. masses --      2.0496                 2.6601                 1.2427
 Frc consts  --      1.0065                 1.4596                 0.7354
 IR Inten    --      0.4842                 0.5512                 1.0538

                     31                     32                     33
                      A                      A                      A
 Frequencies --   1013.1518              1034.8790              1053.5372
 Red. masses --      1.5013                 1.4654                 2.0838
 Frc consts  --      0.9080                 0.9247                 1.3627
 IR Inten    --     12.2237                 2.8221                33.7080

                     34                     35                     36
                      A                      A                      A
 Frequencies --   1079.1080              1114.0031              1157.2762
 Red. masses --      1.7986                 1.4058                 4.3761
 Frc consts  --      1.2340                 1.0279                 3.4531
 IR Inten    --      6.6509                33.5924                36.6445

                     37                     38                     39
                      A                      A                      A
 Frequencies --   1200.0651              1233.5432              1238.1471
 Red. masses --      2.3411                 1.6926                 1.2091
 Frc consts  --      1.9864                 1.5175                 1.0921
 IR Inten    --     13.5672                20.2259                 0.8346

                     40                     41                     42
                      A                      A                      A
 Frequencies --   1290.3955              1313.8664              1326.1282
 Red. masses --      1.9187                 3.0707                 1.3349
 Frc consts  --      1.8824                 3.1231                 1.3831
 IR Inten    --     17.3818                71.6596                 1.6328

                     43                     44                     45
                      A                      A                      A
 Frequencies --   1382.1484              1411.9314              1424.8014
 Red. masses --      1.6187                 2.1451                 1.1380
 Frc consts  --      1.8220                 2.5195                 1.3612
 IR Inten    --     46.4564                77.7390                 3.6184

                     46                     47                     48
                      A                      A                      A
 Frequencies --   1448.3678              1467.3192              1510.8939
 Red. masses --      2.1002                 1.5288                 1.3701
 Frc consts  --      2.5958                 1.9393                 1.8428
 IR Inten    --     75.0750                10.6354                13.5117

                     49                     50                     51
                      A                      A                      A
 Frequencies --   1554.7255              1578.3596              1648.3175
 Red. masses --      4.4332                 5.7932                 6.4871
 Frc consts  --      6.3136                 8.5031                10.3844
 IR Inten    --      3.9439               283.1153                61.2892

                     52                     53                     54
                      A                      A                      A
 Frequencies --   1682.7971              1832.6539              2971.4376
 Red. masses --      8.6607                 8.3697                 1.0705
 Frc consts  --     14.4500                16.5623                 5.5690
 IR Inten    --    296.9664               152.4625                 7.0662

                     55                     56                     57
                      A                      A                      A
 Frequencies --   3018.0032              3091.1171              3119.9714
 Red. masses --      1.0857                 1.0819                 1.0874
 Frc consts  --      5.8262                 6.0906                 6.2364
 IR Inten    --     11.3794                 3.3478                36.8286

                     58                     59                     60
                      A                      A                      A
 Frequencies --   3191.8797              3198.8548              3212.7988
 Red. masses --      1.0823                 1.0877                 1.0926
 Frc consts  --      6.4968                 6.5577                 6.6445
 IR Inten    --      4.1325                 8.6547                16.0857

                     61                     62                     63
                      A                      A                      A
 Frequencies --   3221.2761              3232.2773              3258.3505
 Red. masses --      1.0919                 1.1017                 1.1139
 Frc consts  --      6.6758                 6.7818                 6.9678
 IR Inten    --      5.5834                19.4960                 2.1916

 - Thermochemistry -
 -------------------
 Temperature   298.150 Kelvin.  Pressure   1.00000 Atm.
 Atom     1 has atomic number  6 and mass  12.00000

 Molecular mass:   166.07825 amu.
 Principal axes and moments of inertia in atomic units:
                           1         2         3
     Eigenvalues --  1169.809442806.898363819.07976
           X            0.99990  -0.01397   0.00177
           Y            0.01398   0.99989  -0.00519
           Z           -0.00170   0.00522   0.99998
 This molecule is an asymmetric top.
 Rotational symmetry number  1.
 Warning -- assumption of classical behavior for rotation
           may cause significant error
 Rotational temperatures (Kelvin)      0.07404     0.03086     0.02268
 Rotational constants (GHZ):           1.54277     0.64297     0.47256
 Zero-point vibrational energy     480081.8 (Joules/Mol)
                                  114.74230 (Kcal/Mol)
 Warning -- explicit consideration of  15 degrees of freedom as
           vibrations may cause significant error
 Vibrational temperatures:     84.01   106.54   242.82   301.73   337.19
          (Kelvin)            410.85   421.79   520.85   624.97   669.05
                              713.20   747.14   787.07   838.15   867.78
                              968.35   996.10  1053.05  1092.45  1114.84
                             1130.12  1161.18  1174.27  1215.26  1223.93
                             1294.15  1298.96  1313.57  1388.46  1441.92
                             1457.70  1488.96  1515.81  1552.60  1602.80
                             1665.06  1726.63  1774.79  1781.42  1856.59
                             1890.36  1908.00  1988.60  2031.45  2049.97
                             2083.88  2111.15  2173.84  2236.90  2270.91
                             2371.56  2421.17  2636.78  4275.24  4342.23
                             4447.43  4488.94  4592.40  4602.44  4622.50
                             4634.70  4650.53  4688.04

 Zero-point correction=                           0.182853 (Hartree/Particle)
 Thermal correction to Energy=                    0.193073
 Thermal correction to Enthalpy=                  0.194017
 Thermal correction to Gibbs Free Energy=         0.146905
 Sum of electronic and zero-point Energies=           -501.036142
 Sum of electronic and thermal Energies=              -501.025923
 Sum of electronic and thermal Enthalpies=            -501.024978
 Sum of electronic and thermal Free Energies=         -501.072091

                     E (Thermal)             CV                S
                      KCal/Mol        Cal/Mol-Kelvin    Cal/Mol-Kelvin
 Total                  121.155             41.643             99.157
 Electronic               0.000              0.000              0.000
 Translational            0.889              2.981             41.230
 Rotational               0.889              2.981             30.906
 Vibrational            119.378             35.681             27.020
 Vibration     1          0.596              1.974              4.511
 Vibration     2          0.599              1.966              4.043
 Vibration     3          0.625              1.881              2.449
 Vibration     4          0.642              1.826              2.046
 Vibration     5          0.654              1.788              1.845
 Vibration     6          0.683              1.700              1.500
 Vibration     7          0.688              1.686              1.456
 Vibration     8          0.736              1.551              1.113
 Vibration     9          0.795              1.395              0.844
 Vibration    10          0.822              1.328              0.752
 Vibration    11          0.851              1.260              0.669
 Vibration    12          0.874              1.207              0.612
 Vibration    13          0.902              1.146              0.550
 Vibration    14          0.939              1.069              0.481
 Vibration    15          0.962              1.025              0.444

                           ! Non-Optimized Parameters !
 Normal termination of Gaussian 16 at Wed May 17 22:16:23 2023.
