 Gaussian 16, Revision A.03,
 Gaussian 16:  ES64L-G16RevA.03 25-Dec-2016

 -----------------------------
 # opt freq b3lyp/6-31g(2df,p)
 -----------------------------

 -------------------
 Title Card Required
 -------------------
 Symbolic Z-matrix:
 Charge =  0 Multiplicity = 1

 SCF Done:  E(RB3LYP) =  -645.554153646     A.U. after   34 cycles
 SCF Done:  E(RB3LYP) =  -646.364664659     A.U. after   25 cycles
 SCF Done:  E(RB3LYP) =  -646.120529637     A.U. after   24 cycles
 SCF Done:  E(RB3LYP) =  -646.946223768     A.U. after   46 cycles
 SCF Done:  E(RB3LYP) =  -647.113746191     A.U. after   27 cycles
 SCF Done:  E(RB3LYP) =  -647.260942772     A.U. after   37 cycles
 SCF Done:  E(RB3LYP) =  -646.390940901     A.U. after   35 cycles
 SCF Done:  E(RB3LYP) =  -647.358560818     A.U. after   25 cycles
 SCF Done:  E(RB3LYP) =  -647.498698268     A.U. after   30 cycles
 SCF Done:  E(RB3LYP) =  -647.490009234     A.U. after   23 cycles
 SCF Done:  E(RB3LYP) =  -647.913090926     A.U. after   12 cycles
 SCF Done:  E(RB3LYP) =  -647.913180455     A.U. after   11 cycles
 SCF Done:  E(RB3LYP) =  -647.913230160     A.U. after   12 cycles
 SCF Done:  E(RB3LYP) =  -647.913245159     A.U. after   11 cycles
 SCF Done:  E(RB3LYP) =  -647.913252915     A.U. after   10 cycles
 SCF Done:  E(RB3LYP) =  -647.913256112     A.U. after    9 cycles
 SCF Done:  E(RB3LYP) =  -647.913256798     A.U. after    9 cycles
 SCF Done:  E(RB3LYP) =  -647.913257259     A.U. after    9 cycles
 SCF Done:  E(RB3LYP) =  -647.913257443     A.U. after    8 cycles
 Optimization completed.
    -- Stationary point found.
 Normal termination of Gaussian 16 at Fri May 19 09:00:31 2023.

 ----------------------------------------------------------------------
 #N Geom=AllCheck Guess=TCheck SCRF=Check GenChk RB3LYP/6-31G(2df,p) Fr
 eq
 ----------------------------------------------------------------------

 Structure from the checkpoint file:  "C1dCNdNNdNNdNCNdNNdC1.chk"
 -------------------
 Title Card Required
 -------------------
 Charge =  0 Multiplicity = 1

                         Standard orientation:
 ---------------------------------------------------------------------
 Center     Atomic      Atomic             Coordinates (Angstroms)
 Number     Number       Type             X           Y           Z
 ---------------------------------------------------------------------
      1          6           0       -4.535847    0.006062    0.073666
      2          6           0       -3.189787    0.059956   -0.025550
      3          7           0       -2.308504   -0.953955    0.307525
      4          7           0       -1.138783   -0.474183    0.009589
      5          7           0       -0.057368   -1.202384    0.141210
      6          7           0        1.056741   -0.427368    0.134339
      7          7           0        2.143978   -0.842501   -0.552142
      8          7           0        3.063560    0.036986   -0.124316
      9          6           0        4.329679    0.080590   -0.479792
     10          7           0        2.504699    0.955862    0.783315
     11          7           0        1.273665    0.613631    0.914994
     12          7           0       -1.123010    0.848797   -0.520891
     13          6           0       -2.376333    1.157223   -0.525704
     14          1           0       -5.035262   -0.891348    0.414721
     15          1           0       -2.711095    2.111514   -0.908328
     16          1           0        4.692651   -0.672796   -1.156619
     17          1           0        4.922149    0.880519   -0.072356
     18          1           0       -5.139559    0.864938   -0.188502
 ---------------------------------------------------------------------

 SCF Done:  E(RB3LYP) =  -647.913257443     A.U. after    2 cycles

 The electronic state is 1-A.
 Alpha  occ. eigenvalues --  -14.52504 -14.49710 -14.48539 -14.43053 -14.41568
 Alpha  occ. eigenvalues --  -14.40737 -14.40479 -14.39515 -14.37770 -10.27140
 Alpha  occ. eigenvalues --  -10.25703 -10.22666 -10.20923  -1.20659  -1.15832
 Alpha  occ. eigenvalues --   -1.04714  -0.99825  -0.95073  -0.92595  -0.83363
 Alpha  occ. eigenvalues --   -0.78789  -0.74497  -0.69725  -0.66315  -0.64739
 Alpha  occ. eigenvalues --   -0.61566  -0.58575  -0.54122  -0.52493  -0.51311
 Alpha  occ. eigenvalues --   -0.50638  -0.48022  -0.44782  -0.44463  -0.42577
 Alpha  occ. eigenvalues --   -0.41136  -0.38214  -0.37080  -0.35532  -0.34428
 Alpha  occ. eigenvalues --   -0.33702  -0.33478  -0.32305  -0.31602  -0.24702
 Alpha  occ. eigenvalues --   -0.18148
 Alpha virt. eigenvalues --   -0.12140  -0.04348  -0.01150  -0.00609   0.05979
 Alpha virt. eigenvalues --    0.08038   0.10608   0.10927   0.11973   0.12406
 Alpha virt. eigenvalues --    0.14618   0.15110   0.17542   0.20912   0.21820

 Mulliken charges:
               1
     1  C   -0.394609
     2  C    0.379376
     3  N   -0.299758
     4  N    0.268849
     5  N   -0.199431
     6  N    0.235922
     7  N   -0.246752
     8  N    0.233900
     9  C   -0.307803
    10  N   -0.143979
    11  N   -0.058327
    12  N   -0.176355
    13  C   -0.046504
    14  H    0.153511
    15  H    0.165858
    16  H    0.147667
    17  H    0.147826
    18  H    0.140611
 Sum of Mulliken charges =   0.00000

 Dipole moment (field-independent basis, Debye):
    X=             -3.0095    Y=              2.2269    Z=             -1.2805  Tot=              3.9568
 Quadrupole moment (field-independent basis, Debye-Ang):
   XX=            -50.4463   YY=            -76.3256   ZZ=            -75.1002
   XY=             -6.7991   XZ=              0.3035   YZ=             -2.2399

  Exact polarizability: 415.322   2.118  81.936  -9.338   0.759  58.740
 Approx polarizability:1127.663  22.972 160.114 -17.406   8.952 104.968

                      1                      2                      3
                      A                      A                      A
 Frequencies --     51.4973                61.4394               105.6311
 Red. masses --      5.6934                 5.7594                 6.8896
 Frc consts  --      0.0089                 0.0128                 0.0453
 IR Inten    --      3.2523                 1.5586                 3.4716

                      4                      5                      6
                      A                      A                      A
 Frequencies --    182.0692               206.4274               276.0230
 Red. masses --      6.1688                 6.4146                 3.9671
 Frc consts  --      0.1205                 0.1610                 0.1781
 IR Inten    --      2.3572                 0.9000                 2.4952

                      7                      8                      9
                      A                      A                      A
 Frequencies --    314.9928               346.6705               371.0061
 Red. masses --      5.0798                 3.9935                 7.3183
 Frc consts  --      0.2970                 0.2828                 0.5935
 IR Inten    --      0.2928                 2.0973                 1.6726

                     10                     11                     12
                      A                      A                      A
 Frequencies --    447.1992               498.0045               534.1018
 Red. masses --      4.5491                 4.8572                 1.2942
 Frc consts  --      0.5360                 0.7097                 0.2175
 IR Inten    --      1.6303                 4.6415                20.1382

                     13                     14                     15
                      A                      A                      A
 Frequencies --    557.2023               608.9004               613.1619
 Red. masses --      1.2218                 4.1424                 1.9536
 Frc consts  --      0.2235                 0.9049                 0.4327
 IR Inten    --     62.8812                12.7688                 7.8817

                     16                     17                     18
                      A                      A                      A
 Frequencies --    689.2872               696.8176               717.1271
 Red. masses --      1.9400                11.2344                 4.0329
 Frc consts  --      0.5431                 3.2139                 1.2220
 IR Inten    --      1.1602                 7.4436                 7.2420

                     19                     20                     21
                      A                      A                      A
 Frequencies --    720.3423               751.1154               780.0771
 Red. masses --      5.9632                10.7267                 5.4757
 Frc consts  --      1.8231                 3.5656                 1.9632
 IR Inten    --     78.0400                38.6277                 9.2685

                     22                     23                     24
                      A                      A                      A
 Frequencies --    820.0223               849.3884               894.7174
 Red. masses --      6.8109                11.8063                 1.4065
 Frc consts  --      2.6984                 5.0185                 0.6634
 IR Inten    --     27.8527                 3.1370                29.4412

                     25                     26                     27
                      A                      A                      A
 Frequencies --    902.8586               935.5845               960.8030
 Red. masses --      6.8524                 1.4596                 1.8061
 Frc consts  --      3.2910                 0.7527                 0.9823
 IR Inten    --     22.3082                13.5020                 4.0654

                     28                     29                     30
                      A                      A                      A
 Frequencies --   1019.5588              1044.0530              1072.8590
 Red. masses --      3.4675                 4.2940                 7.4025
 Frc consts  --      2.1237                 2.7577                 5.0201
 IR Inten    --     33.8280                17.2231                15.9645

                     31                     32                     33
                      A                      A                      A
 Frequencies --   1180.3666              1216.2273              1241.4175
 Red. masses --      8.3972                 2.8007                 1.5442
 Frc consts  --      6.8931                 2.4409                 1.4021
 IR Inten    --    353.1530               107.6458                45.5779

                     34                     35                     36
                      A                      A                      A
 Frequencies --   1266.8464              1340.9853              1357.2418
 Red. masses --     10.6077                 5.4486                 7.7441
 Frc consts  --     10.0304                 5.7728                 8.4050
 IR Inten    --    117.0131                35.4537                40.7286

                     37                     38                     39
                      A                      A                      A
 Frequencies --   1418.8560              1437.9973              1444.7927
 Red. masses --      5.7442                 1.3080                 1.3144
 Frc consts  --      6.8133                 1.5936                 1.6166
 IR Inten    --     18.2185                10.3279                23.0985

                     40                     41                     42
                      A                      A                      A
 Frequencies --   1492.4008              1599.4481              1613.2274
 Red. masses --      7.5038                 8.2225                 8.8800
 Frc consts  --      9.8470                12.3936                13.6162
 IR Inten    --    141.6438                27.3597               330.5768

                     43                     44                     45
                      A                      A                      A
 Frequencies --   1667.6942              3181.0835              3225.9890
 Red. masses --      6.0245                 1.0579                 1.0474
 Frc consts  --      9.8719                 6.3076                 6.4226
 IR Inten    --     36.4099                15.9290                47.6321

                     46                     47                     48
                      A                      A                      A
 Frequencies --   3246.0585              3279.5701              3363.8364
 Red. masses --      1.0976                 1.1176                 1.1271
 Frc consts  --      6.8141                 7.0824                 7.5139
 IR Inten    --      0.5273                 0.4333                 1.1975

 - Thermochemistry -
 -------------------
 Temperature   298.150 Kelvin.  Pressure   1.00000 Atm.
 Atom     1 has atomic number  6 and mass  12.00000

 Molecular mass:   179.06679 amu.
 Principal axes and moments of inertia in atomic units:
                           1         2         3
     Eigenvalues --   497.109944425.516234644.66688
           X            0.99998  -0.00422  -0.00366
           Y            0.00411   0.99959  -0.02824
           Z            0.00377   0.02822   0.99959
 This molecule is an asymmetric top.
 Rotational symmetry number  1.
 Warning -- assumption of classical behavior for rotation
           may cause significant error
 Rotational temperatures (Kelvin)      0.17423     0.01957     0.01865
 Rotational constants (GHZ):           3.63047     0.40780     0.38856
 Zero-point vibrational energy     314635.7 (Joules/Mol)
                                   75.19973 (Kcal/Mol)
 Warning -- explicit consideration of  15 degrees of freedom as
           vibrations may cause significant error
 Vibrational temperatures:     74.09    88.40   151.98   261.96   297.00
          (Kelvin)            397.14   453.20   498.78   533.80   643.42
                              716.52   768.45   801.69   876.07   882.20
                              991.73  1002.57  1031.79  1036.41  1080.69
                             1122.36  1179.83  1222.08  1287.30  1299.01
                             1346.10  1382.38  1466.92  1502.16  1543.60
                             1698.28  1749.88  1786.12  1822.71  1929.38
                             1952.77  2041.42  2068.96  2078.73  2147.23
                             2301.25  2321.07  2399.44  4576.87  4641.48
                             4670.35  4718.57  4839.81

 Zero-point correction=                           0.119838 (Hartree/Particle)
 Thermal correction to Energy=                    0.130081
 Thermal correction to Enthalpy=                  0.131025
 Thermal correction to Gibbs Free Energy=         0.083179
 Sum of electronic and zero-point Energies=           -647.793419
 Sum of electronic and thermal Energies=              -647.783177
 Sum of electronic and thermal Enthalpies=            -647.782232
 Sum of electronic and thermal Free Energies=         -647.830078

                     E (Thermal)             CV                S
                      KCal/Mol        Cal/Mol-Kelvin    Cal/Mol-Kelvin
 Total                   81.627             39.230            100.700
 Electronic               0.000              0.000              0.000
 Translational            0.889              2.981             41.455
 Rotational               0.889              2.981             30.703
 Vibrational             79.849             33.269             28.543
 Vibration     1          0.596              1.977              4.759
 Vibration     2          0.597              1.973              4.410
 Vibration     3          0.605              1.945              3.348
 Vibration     4          0.630              1.864              2.307
 Vibration     5          0.641              1.831              2.075
 Vibration     6          0.678              1.718              1.558
 Vibration     7          0.702              1.645              1.336
 Vibration     8          0.725              1.582              1.181
 Vibration     9          0.743              1.532              1.076
 Vibration    10          0.806              1.367              0.804
 Vibration    11          0.853              1.254              0.663
 Vibration    12          0.889              1.175              0.578
 Vibration    13          0.913              1.124              0.529
 Vibration    14          0.968              1.013              0.435
 Vibration    15          0.972              1.004              0.428

 Optimization completed.
    -- Stationary point found.
 Normal termination of Gaussian 16 at Fri May 19 09:44:27 2023.
