 Gaussian 16, Revision A.03,
 Gaussian 16:  ES64L-G16RevA.03 25-Dec-2016

 -----------------------------
 # opt freq b3lyp/6-31g(2df,p)
 -----------------------------

 -------------------
 Title Card Required
 -------------------
 Symbolic Z-matrix:
 Charge =  0 Multiplicity = 1

 SCF Done:  E(RB3LYP) =  -750.583478845     A.U. after   17 cycles
 SCF Done:  E(RB3LYP) =  -750.647571018     A.U. after   13 cycles
 SCF Done:  E(RB3LYP) =  -750.718988922     A.U. after   14 cycles
 SCF Done:  E(RB3LYP) =  -750.738366976     A.U. after   13 cycles
 SCF Done:  E(RB3LYP) =  -750.748592376     A.U. after   13 cycles
 SCF Done:  E(RB3LYP) =  -750.754446632     A.U. after   12 cycles
 SCF Done:  E(RB3LYP) =  -750.763349207     A.U. after   13 cycles
 SCF Done:  E(RB3LYP) =  -750.769231656     A.U. after   13 cycles
 SCF Done:  E(RB3LYP) =  -750.773102345     A.U. after   13 cycles
 SCF Done:  E(RB3LYP) =  -750.776175517     A.U. after   13 cycles
 SCF Done:  E(RB3LYP) =  -750.777298739     A.U. after   14 cycles
 SCF Done:  E(RB3LYP) =  -750.778002819     A.U. after   12 cycles
 SCF Done:  E(RB3LYP) =  -750.778179016     A.U. after   11 cycles
 SCF Done:  E(RB3LYP) =  -750.778249591     A.U. after   11 cycles
 SCF Done:  E(RB3LYP) =  -750.778265184     A.U. after   10 cycles
 SCF Done:  E(RB3LYP) =  -750.778267769     A.U. after    8 cycles
 SCF Done:  E(RB3LYP) =  -750.778268354     A.U. after    8 cycles
 SCF Done:  E(RB3LYP) =  -750.778268525     A.U. after    7 cycles
 SCF Done:  E(RB3LYP) =  -750.778268592     A.U. after    7 cycles
 Optimization completed.
    -- Stationary point found.
 Normal termination of Gaussian 16 at Fri May 19 07:34:08 2023.

 ----------------------------------------------------------------------
 #N Geom=AllCheck Guess=TCheck SCRF=Check GenChk RB3LYP/6-31G(2df,p) Fr
 eq
 ----------------------------------------------------------------------

 Structure from the checkpoint file:  "C1dCCdCC2dCCdCCdCCdC2CdCCCdNCdC1.chk"
 -------------------
 Title Card Required
 -------------------
 Charge =  0 Multiplicity = 1

                         Standard orientation:
 ---------------------------------------------------------------------
 Center     Atomic      Atomic             Coordinates (Angstroms)
 Number     Number       Type             X           Y           Z
 ---------------------------------------------------------------------
      1          6           0        3.314433   -2.130964   -0.138724
      2          6           0        2.191461   -1.690876   -0.753743
      3          6           0        0.824826   -1.925785   -0.371766
      4          6           0       -0.088826   -1.001390   -0.752314
      5          6           0       -1.338031   -0.599089   -0.101863
      6          6           0       -2.058773   -1.427036    0.677203
      7          6           0       -3.271316   -1.135164    1.442800
      8          6           0       -4.423166   -0.633284    0.974683
      9          6           0       -4.718617   -0.225380   -0.400469
     10          6           0       -4.001527    0.592098   -1.186039
     11          6           0       -2.784011    1.322760   -0.836777
     12          6           0       -1.632756    0.865948   -0.303721
     13          6           0       -0.538343    1.829662   -0.083998
     14          6           0        0.618322    1.614240    0.557846
     15          6           0        1.766657    2.585618    0.618206
     16          6           0        3.107993    1.955684    0.285847
     17          7           0        3.245100    0.692326    0.244342
     18          6           0        4.452118    0.044017    0.038474
     19          6           0        4.509395   -1.305098   -0.116613
     20          1           0        3.294723   -3.013197    0.500235
     21          1           0        2.319288   -0.879697   -1.463906
     22          1           0        0.620335   -2.635362    0.426611
     23          1           0        0.242242   -0.309688   -1.521855
     24          1           0       -1.689525   -2.447082    0.791318
     25          1           0       -3.258303   -1.479420    2.477297
     26          1           0       -5.268888   -0.590650    1.660295
     27          1           0       -5.672378   -0.581387   -0.789220
     28          1           0       -4.427983    0.850700   -2.155310
     29          1           0       -2.821402    2.386606   -1.078118
     30          1           0       -0.706053    2.807708   -0.536098
     31          1           0        0.807683    0.657892    1.029970
     32          1           0        1.858707    3.018551    1.629833
     33          1           0        1.595817    3.443371   -0.045319
     34          1           0        3.942871    2.653562    0.107920
     35          1           0        5.376536    0.628365    0.081716
     36          1           0        5.491594   -1.772327   -0.119962
 ---------------------------------------------------------------------

 SCF Done:  E(RB3LYP) =  -750.778268592     A.U. after    1 cycles

 The electronic state is 1-A.
 Alpha  occ. eigenvalues --  -14.32155 -10.22759 -10.20765 -10.19572 -10.19485
 Alpha  occ. eigenvalues --  -10.19458 -10.18648 -10.18634 -10.18602 -10.18552
 Alpha  occ. eigenvalues --  -10.18476 -10.18471 -10.18436 -10.18358 -10.18232
 Alpha  occ. eigenvalues --  -10.18097 -10.18062 -10.17945 -10.17641  -0.92576
 Alpha  occ. eigenvalues --   -0.84633  -0.81576  -0.80603  -0.78685  -0.77541
 Alpha  occ. eigenvalues --   -0.76360  -0.71531  -0.71234  -0.67346  -0.66047
 Alpha  occ. eigenvalues --   -0.61217  -0.59902  -0.57251  -0.55694  -0.54602
 Alpha  occ. eigenvalues --   -0.53994  -0.51453  -0.49791  -0.48936  -0.46932
 Alpha  occ. eigenvalues --   -0.46305  -0.45767  -0.44953  -0.44149  -0.42957
 Alpha  occ. eigenvalues --   -0.42742  -0.42095  -0.40379  -0.39326  -0.38167
 Alpha  occ. eigenvalues --   -0.37618  -0.36045  -0.35786  -0.35362  -0.34530
 Alpha  occ. eigenvalues --   -0.33955  -0.32474  -0.32423  -0.31163  -0.29155
 Alpha  occ. eigenvalues --   -0.27922  -0.25371  -0.23888  -0.23297  -0.20227
 Alpha  occ. eigenvalues --   -0.18350
 Alpha virt. eigenvalues --   -0.06253  -0.03878  -0.01584   0.01389   0.03728
 Alpha virt. eigenvalues --    0.05550   0.06661   0.09434   0.10242   0.10371
 Alpha virt. eigenvalues --    0.11192   0.12401   0.12936   0.13534   0.13991

 Mulliken charges:
               1
     1  C   -0.155437
     2  C   -0.007037
     3  C   -0.123526
     4  C   -0.111557
     5  C    0.151898
     6  C   -0.191222
     7  C   -0.119103
     8  C   -0.095295
     9  C   -0.093517
    10  C   -0.117156
    11  C   -0.168567
    12  C    0.181132
    13  C   -0.134489
    14  C   -0.057560
    15  C   -0.336757
    16  C    0.012289
    17  N   -0.142160
    18  C    0.005292
    19  C   -0.125530
    20  H    0.090247
    21  H    0.094754
    22  H    0.087802
    23  H    0.096725
    24  H    0.094465
    25  H    0.093954
    26  H    0.094730
    27  H    0.095111
    28  H    0.092745
    29  H    0.088825
    30  H    0.077867
    31  H    0.121166
    32  H    0.128344
    33  H    0.111810
    34  H    0.080450
    35  H    0.083338
    36  H    0.095969
 Sum of Mulliken charges =  -0.00000

 Dipole moment (field-independent basis, Debye):
    X=              0.3977    Y=              1.2480    Z=              0.4006  Tot=              1.3697
 Quadrupole moment (field-independent basis, Debye-Ang):
   XX=           -100.6689   YY=           -103.7553   ZZ=           -110.0374
   XY=              3.7020   XZ=              1.3293   YZ=             -4.5699

  Exact polarizability: 379.927  -1.206 205.872   8.228 -14.838 131.737
 Approx polarizability: 598.731 -17.529 360.995  27.324 -33.028 238.494

                      1                      2                      3
                      A                      A                      A
 Frequencies --     56.7898                62.0915                93.2912
 Red. masses --      4.6012                 4.3705                 4.3744
 Frc consts  --      0.0087                 0.0099                 0.0224
 IR Inten    --      0.2402                 0.5761                 0.5210

                      4                      5                      6
                      A                      A                      A
 Frequencies --    128.1953               146.4904               159.2940
 Red. masses --      3.8276                 3.2091                 3.3506
 Frc consts  --      0.0371                 0.0406                 0.0501
 IR Inten    --      3.0754                 0.7406                 0.6093

                      7                      8                      9
                      A                      A                      A
 Frequencies --    166.5822               199.4033               205.4936
 Red. masses --      3.7268                 3.4636                 2.9822
 Frc consts  --      0.0609                 0.0811                 0.0742
 IR Inten    --      1.3046                 0.7409                 1.9248

                     10                     11                     12
                      A                      A                      A
 Frequencies --    220.3449               226.6795               242.9794
 Red. masses --      3.9628                 2.6099                 2.8733
 Frc consts  --      0.1134                 0.0790                 0.0999
 IR Inten    --      1.2877                 1.7599                 1.1695

                     13                     14                     15
                      A                      A                      A
 Frequencies --    265.7776               277.9777               321.7985
 Red. masses --      2.8419                 2.4639                 3.3033
 Frc consts  --      0.1183                 0.1122                 0.2015
 IR Inten    --     11.8821                 1.7641                 2.1544

                     16                     17                     18
                      A                      A                      A
 Frequencies --    343.4103               353.7476               363.9259
 Red. masses --      3.5220                 2.8120                 3.8609
 Frc consts  --      0.2447                 0.2073                 0.3013
 IR Inten    --      1.8813                 0.6892                 1.3475

                     19                     20                     21
                      A                      A                      A
 Frequencies --    377.8860               416.8601               441.2367
 Red. masses --      4.5345                 4.4299                 3.9056
 Frc consts  --      0.3815                 0.4535                 0.4480
 IR Inten    --      1.3208                 1.5780                 5.0705

                     22                     23                     24
                      A                      A                      A
 Frequencies --    461.5251               501.6726               570.4833
 Red. masses --      3.4766                 3.4083                 3.7945
 Frc consts  --      0.4363                 0.5054                 0.7276
 IR Inten    --      6.7972                 8.9416                 0.6310

                     25                     26                     27
                      A                      A                      A
 Frequencies --    590.8807               640.3147               655.6042
 Red. masses --      3.3377                 3.4279                 2.6874
 Frc consts  --      0.6866                 0.8281                 0.6806
 IR Inten    --      1.1518                 4.5379                12.6642

                     28                     29                     30
                      A                      A                      A
 Frequencies --    666.1740               711.6427               735.8701
 Red. masses --      2.6861                 2.8328                 1.6144
 Frc consts  --      0.7023                 0.8453                 0.5151
 IR Inten    --     11.4278                 7.2349                 6.4696

                     31                     32                     33
                      A                      A                      A
 Frequencies --    753.4608               758.4769               787.7318
 Red. masses --      3.0345                 2.7538                 1.9696
 Frc consts  --      1.0150                 0.9334                 0.7201
 IR Inten    --      5.1958                13.9281                 2.4663

                     34                     35                     36
                      A                      A                      A
 Frequencies --    811.7626               825.6526               841.7847
 Red. masses --      2.1558                 1.7945                 2.0458
 Frc consts  --      0.8370                 0.7207                 0.8541
 IR Inten    --      7.4360                20.3477                19.8674

                     37                     38                     39
                      A                      A                      A
 Frequencies --    845.4809               883.8663               890.6935
 Red. masses --      2.0454                 1.7003                 2.0469
 Frc consts  --      0.8615                 0.7826                 0.9568
 IR Inten    --     10.9113                 3.2327                44.8493

                     40                     41                     42
                      A                      A                      A
 Frequencies --    915.8469               921.4969               941.9450
 Red. masses --      1.7077                 2.5898                 2.7701
 Frc consts  --      0.8439                 1.2957                 1.4481
 IR Inten    --     13.2124                 3.7542                 3.9801

                     43                     44                     45
                      A                      A                      A
 Frequencies --    944.4116               959.0003               966.5376
 Red. masses --      2.3951                 1.4213                 1.3126
 Frc consts  --      1.2586                 0.7701                 0.7225
 IR Inten    --      2.4091                23.3224                 3.6906

                     46                     47                     48
                      A                      A                      A
 Frequencies --    985.5205               990.2499               994.6090
 Red. masses --      1.3078                 1.4033                 1.7472
 Frc consts  --      0.7484                 0.8108                 1.0184
 IR Inten    --      0.2034                 1.0888                 0.5172

                     49                     50                     51
                      A                      A                      A
 Frequencies --   1008.8455              1016.9355              1018.5187
 Red. masses --      2.0276                 1.5472                 1.4477
 Frc consts  --      1.2159                 0.9427                 0.8849
 IR Inten    --      7.9367                26.7218                15.6062

                     52                     53                     54
                      A                      A                      A
 Frequencies --   1046.1109              1065.6752              1092.0625
 Red. masses --      1.2893                 2.1128                 2.1335
 Frc consts  --      0.8313                 1.4137                 1.4991
 IR Inten    --     42.2134                 0.6133                 2.8623

                     55                     56                     57
                      A                      A                      A
 Frequencies --   1108.5367              1142.5915              1179.1622
 Red. masses --      2.5680                 4.0649                 2.1372
 Frc consts  --      1.8593                 3.1266                 1.7508
 IR Inten    --     12.4456                 0.2538                 0.1850

                     58                     59                     60
                      A                      A                      A
 Frequencies --   1193.6278              1200.6073              1236.3294
 Red. masses --      2.0447                 1.5369                 1.3031
 Frc consts  --      1.7164                 1.3053                 1.1735
 IR Inten    --      9.0751                 1.5389                 9.4939

                     61                     62                     63
                      A                      A                      A
 Frequencies --   1242.6088              1249.9681              1255.4953
 Red. masses --      1.2700                 1.1140                 1.1400
 Frc consts  --      1.1554                 1.0255                 1.0587
 IR Inten    --      8.7982                 4.0155                 0.6028

                     64                     65                     66
                      A                      A                      A
 Frequencies --   1278.1941              1319.9660              1328.1179
 Red. masses --      1.3813                 1.3838                 1.4114
 Frc consts  --      1.3297                 1.4205                 1.4668
 IR Inten    --      3.4166                 0.4931                 3.8370

                     67                     68                     69
                      A                      A                      A
 Frequencies --   1339.6032              1341.2335              1354.1686
 Red. masses --      1.3457                 1.3915                 1.3805
 Frc consts  --      1.4228                 1.4748                 1.4915
 IR Inten    --      2.0410                 2.8151                10.5430

                     70                     71                     72
                      A                      A                      A
 Frequencies --   1362.4371              1392.4498              1411.9511
 Red. masses --      1.3941                 1.2746                 1.4425
 Frc consts  --      1.5247                 1.4561                 1.6943
 IR Inten    --      6.8131                 1.0283                 0.5508

                     73                     74                     75
                      A                      A                      A
 Frequencies --   1414.4175              1436.3459              1450.5079
 Red. masses --      1.4383                 1.6489                 1.1099
 Frc consts  --      1.6953                 2.0044                 1.3759
 IR Inten    --      4.6011                10.6423                14.8236

                     76                     77                     78
                      A                      A                      A
 Frequencies --   1456.0927              1592.8903              1622.1909
 Red. masses --      1.7020                 5.4657                 5.2986
 Frc consts  --      2.1261                 8.1708                 8.2152
 IR Inten    --      2.5404                13.4577                13.2825

                     79                     80                     81
                      A                      A                      A
 Frequencies --   1648.3496              1673.4517              1683.8634
 Red. masses --      4.7760                 6.8648                 6.7916
 Frc consts  --      7.6456                11.3267                11.3458
 IR Inten    --     11.8266                 1.1518                 2.2882

                     82                     83                     84
                      A                      A                      A
 Frequencies --   1688.5870              1696.6724              1703.1310
 Red. masses --      6.0817                 6.3266                 8.4923
 Frc consts  --     10.2169                10.7305                14.5135
 IR Inten    --      0.3778                 2.9280                 4.2941

                     85                     86                     87
                      A                      A                      A
 Frequencies --   1715.0101              2959.1234              2975.9178
 Red. masses --      8.2401                 1.0711                 1.0849
 Frc consts  --     14.2796                 5.5258                 5.6606
 IR Inten    --     38.6114                12.9228               104.4527

                     88                     89                     90
                      A                      A                      A
 Frequencies --   3039.6757              3067.3609              3099.6001
 Red. masses --      1.0863                 1.0859                 1.0843
 Frc consts  --      5.9134                 6.0195                 6.1377
 IR Inten    --     23.8300                51.7791                11.0851

                     91                     92                     93
                      A                      A                      A
 Frequencies --   3106.5658              3112.6269              3115.9384
 Red. masses --      1.0819                 1.0825                 1.0845
 Frc consts  --      6.1520                 6.1793                 6.2036
 IR Inten    --      7.9094                 8.0087                10.2438

                     94                     95                     96
                      A                      A                      A
 Frequencies --   3118.1389              3127.5006              3131.4916
 Red. masses --      1.0865                 1.0866                 1.0919
 Frc consts  --      6.2242                 6.2623                 6.3089
 IR Inten    --     24.2104                17.7734                50.4488

                     97                     98                     99
                      A                      A                      A
 Frequencies --   3140.2679              3152.7673              3155.4561
 Red. masses --      1.0935                 1.0892                 1.0908
 Frc consts  --      6.3536                 6.3788                 6.3989
 IR Inten    --     68.0943                 6.8956                54.3546

                    100                    101                    102
                      A                      A                      A
 Frequencies --   3159.1645              3171.7970              3209.8926
 Red. masses --      1.0859                 1.0861                 1.0873
 Frc consts  --      6.3851                 6.4375                 6.6003
 IR Inten    --      3.8289                28.6786                 3.0150

 - Thermochemistry -
 -------------------
 Temperature   298.150 Kelvin.  Pressure   1.00000 Atm.
 Atom     1 has atomic number  6 and mass  12.00000

 Molecular mass:   247.13610 amu.
 Principal axes and moments of inertia in atomic units:
                           1         2         3
     Eigenvalues --  2313.190128322.398109770.11670
           X            1.00000   0.00294   0.00064
           Y           -0.00293   0.99985  -0.01689
           Z           -0.00069   0.01689   0.99986
 This molecule is an asymmetric top.
 Rotational symmetry number  1.
 Warning -- assumption of classical behavior for rotation
           may cause significant error
 Rotational temperatures (Kelvin)      0.03744     0.01041     0.00887
 Rotational constants (GHZ):           0.78020     0.21685     0.18472
 Zero-point vibrational energy     774180.9 (Joules/Mol)
                                  185.03368 (Kcal/Mol)
 Warning -- explicit consideration of  25 degrees of freedom as
           vibrations may cause significant error
 Vibrational temperatures:     81.71    89.34   134.23   184.44   210.77
          (Kelvin)            229.19   239.67   286.90   295.66   317.03
                              326.14   349.59   382.39   399.95   463.00
                              494.09   508.96   523.61   543.69   599.77
                              634.84   664.03   721.80   820.80   850.15
                              921.27   943.27   958.48  1023.90  1058.75
                             1084.06  1091.28  1133.37  1167.95  1187.93
                             1211.14  1216.46  1271.69  1281.51  1317.70
                             1325.83  1355.25  1358.80  1379.79  1390.63
                             1417.94  1424.75  1431.02  1451.50  1463.14
                             1465.42  1505.12  1533.27  1571.23  1594.94
                             1643.93  1696.55  1717.36  1727.41  1778.80
                             1787.84  1798.43  1806.38  1839.04  1899.14
                             1910.87  1927.39  1929.74  1948.35  1960.24
                             2003.42  2031.48  2035.03  2066.58  2086.96
                             2094.99  2291.81  2333.97  2371.61  2407.72
                             2422.70  2429.50  2441.13  2450.43  2467.52
                             4257.52  4281.68  4373.42  4413.25  4459.63
                             4469.66  4478.38  4483.14  4486.31  4499.78
                             4505.52  4518.15  4536.13  4540.00  4545.33
                             4563.51  4618.32

 Zero-point correction=                           0.294870 (Hartree/Particle)
 Thermal correction to Energy=                    0.311538
 Thermal correction to Enthalpy=                  0.312483
 Thermal correction to Gibbs Free Energy=         0.251763
 Sum of electronic and zero-point Energies=           -750.483399
 Sum of electronic and thermal Energies=              -750.466730
 Sum of electronic and thermal Enthalpies=            -750.465786
 Sum of electronic and thermal Free Energies=         -750.526505

                     E (Thermal)             CV                S
                      KCal/Mol        Cal/Mol-Kelvin    Cal/Mol-Kelvin
 Total                  195.493             66.863            127.794
 Electronic               0.000              0.000              0.000
 Translational            0.889              2.981             42.415
 Rotational               0.889              2.981             33.597
 Vibrational            193.716             60.901             51.782
 Vibration     1          0.596              1.975              4.566
 Vibration     2          0.597              1.972              4.390
 Vibration     3          0.602              1.954              3.590
 Vibration     4          0.611              1.925              2.973
 Vibration     5          0.617              1.906              2.717
 Vibration     6          0.621              1.892              2.558
 Vibration     7          0.624              1.884              2.474
 Vibration     8          0.638              1.841              2.139
 Vibration     9          0.640              1.832              2.083
 Vibration    10          0.647              1.810              1.956
 Vibration    11          0.650              1.800              1.905
 Vibration    12          0.659              1.774              1.781
 Vibration    13          0.672              1.736              1.624
 Vibration    14          0.679              1.714              1.546
 Vibration    15          0.707              1.632              1.301
 Vibration    16          0.722              1.589              1.196
 Vibration    17          0.730              1.568              1.149
 Vibration    18          0.737              1.547              1.105
 Vibration    19          0.748              1.517              1.048
 Vibration    20          0.780              1.434              0.903
 Vibration    21          0.801              1.380              0.823
 Vibration    22          0.819              1.335              0.762
 Vibration    23          0.857              1.246              0.654
 Vibration    24          0.927              1.095              0.503
 Vibration    25          0.948              1.051              0.466

 Optimization completed.
    -- Stationary point found.
 Normal termination of Gaussian 16 at Fri May 19 12:13:27 2023.
