 Gaussian 16, Revision A.03,
 Gaussian 16:  ES64L-G16RevA.03 25-Dec-2016

 -----------------------------
 # opt freq b3lyp/6-31g(2df,p)
 -----------------------------

 -------------------
 Title Card Required
 -------------------
 Symbolic Z-matrix:
 Charge =  0 Multiplicity = 1

 SCF Done:  E(RB3LYP) =  -969.313209826     A.U. after   31 cycles
 SCF Done:  E(RB3LYP) =  -969.388819243     A.U. after   16 cycles
 SCF Done:  E(RB3LYP) =  -969.437822660     A.U. after   17 cycles
 SCF Done:  E(RB3LYP) =  -969.478474386     A.U. after   16 cycles
 SCF Done:  E(RB3LYP) =  -969.520482544     A.U. after   15 cycles
 SCF Done:  E(RB3LYP) =  -969.548225708     A.U. after   15 cycles
 SCF Done:  E(RB3LYP) =  -969.560030210     A.U. after   15 cycles
 SCF Done:  E(RB3LYP) =  -969.563075233     A.U. after   15 cycles
 SCF Done:  E(RB3LYP) =  -969.564244923     A.U. after   14 cycles
 SCF Done:  E(RB3LYP) =  -969.564852587     A.U. after   13 cycles
 SCF Done:  E(RB3LYP) =  -969.564979583     A.U. after   13 cycles
 SCF Done:  E(RB3LYP) =  -969.565005190     A.U. after   10 cycles
 SCF Done:  E(RB3LYP) =  -969.565013019     A.U. after    9 cycles
 SCF Done:  E(RB3LYP) =  -969.565017083     A.U. after    9 cycles
 SCF Done:  E(RB3LYP) =  -969.565018732     A.U. after    8 cycles
 SCF Done:  E(RB3LYP) =  -969.565019636     A.U. after    8 cycles
 SCF Done:  E(RB3LYP) =  -969.565020214     A.U. after    8 cycles
 SCF Done:  E(RB3LYP) =  -969.565020360     A.U. after    7 cycles
 Optimization completed.
    -- Stationary point found.
 Normal termination of Gaussian 16 at Tue May 16 19:43:12 2023.

 ----------------------------------------------------------------------
 #N Geom=AllCheck Guess=TCheck SCRF=Check GenChk RB3LYP/6-31G(2df,p) Fr
 eq
 ----------------------------------------------------------------------

 Structure from the checkpoint file:  "C1dc2ccc3cccc-3nncsc2dC1.chk"
 -------------------
 Title Card Required
 -------------------
 Charge =  0 Multiplicity = 1

                         Standard orientation:
 ---------------------------------------------------------------------
 Center     Atomic      Atomic             Coordinates (Angstroms)
 Number     Number       Type             X           Y           Z
 ---------------------------------------------------------------------
      1          6           0       -2.906747   -2.026363    0.540662
      2          6           0       -1.774365   -1.517168    0.012289
      3          6           0       -0.401502   -1.864780   -0.133762
      4          6           0        0.438089   -0.954275   -0.679715
      5          6           0        1.835349   -0.697017   -0.396127
      6          6           0        2.987658   -1.396860   -0.524137
      7          6           0        4.115196   -0.596775   -0.015116
      8          6           0        3.664068    0.588198    0.448449
      9          6           0        2.207076    0.607559    0.267357
     10          7           0        1.449366    1.538566    0.748683
     11          7           0        0.110276    1.355715    0.663223
     12          6           0       -0.585813    1.978334   -0.194746
     13         16           0       -2.267549    1.548435   -0.584157
     14          6           0       -2.499692   -0.070317    0.031470
     15          6           0       -3.588127   -0.656501    0.555272
     16          1           0       -3.185483   -2.998157    0.924137
     17          1           0       -0.037438   -2.748308    0.385628
     18          1           0       -0.056884   -0.153501   -1.212599
     19          1           0        3.084026   -2.384759   -0.954989
     20          1           0        5.143174   -0.934443   -0.020655
     21          1           0        4.222353    1.392118    0.903846
     22          1           0       -0.182820    2.735399   -0.873388
     23          1           0       -4.570768   -0.307476    0.839808
 ---------------------------------------------------------------------

 SCF Done:  E(RB3LYP) =  -969.565020360     A.U. after    1 cycles

 The electronic state is 1-A.
 Alpha  occ. eigenvalues --  -88.90967 -14.38066 -14.37541 -10.26267 -10.23563
 Alpha  occ. eigenvalues --  -10.23030 -10.21377 -10.20744 -10.20275 -10.19858
 Alpha  occ. eigenvalues --  -10.19845 -10.19714 -10.19425 -10.19387 -10.18386
 Alpha  occ. eigenvalues --   -7.97072  -5.93540  -5.93151  -5.92730  -1.02253
 Alpha  occ. eigenvalues --   -0.88898  -0.88304  -0.83968  -0.80029  -0.77317
 Alpha  occ. eigenvalues --   -0.72514  -0.67918  -0.66841  -0.61362  -0.60570
 Alpha  occ. eigenvalues --   -0.57953  -0.55460  -0.54640  -0.51474  -0.49987
 Alpha  occ. eigenvalues --   -0.49096  -0.44841  -0.44176  -0.42864  -0.42115
 Alpha  occ. eigenvalues --   -0.40921  -0.39821  -0.39323  -0.38131  -0.37430
 Alpha  occ. eigenvalues --   -0.36383  -0.35481  -0.33994  -0.31924  -0.30221
 Alpha  occ. eigenvalues --   -0.27771  -0.25382  -0.24107  -0.22315  -0.17580
 Alpha virt. eigenvalues --   -0.09128  -0.06983  -0.02286  -0.00067   0.03736
 Alpha virt. eigenvalues --    0.07300   0.07421   0.09206   0.09547   0.11454
 Alpha virt. eigenvalues --    0.12110   0.12900   0.13636   0.13951   0.15499

 Mulliken charges:
               1
     1  C   -0.272491
     2  C    0.274402
     3  C   -0.192245
     4  C   -0.203503
     5  C    0.211658
     6  C   -0.242817
     7  C   -0.095580
     8  C   -0.173217
     9  C    0.283479
    10  N   -0.248512
    11  N   -0.084156
    12  C   -0.038849
    13  S   -0.105774
    14  C    0.136237
    15  C   -0.190885
    16  H    0.123087
    17  H    0.105217
    18  H    0.114174
    19  H    0.109784
    20  H    0.109006
    21  H    0.114761
    22  H    0.134683
    23  H    0.131540
 Sum of Mulliken charges =  -0.00000

 Dipole moment (field-independent basis, Debye):
    X=             -0.0114    Y=             -1.3540    Z=             -0.6904  Tot=              1.5199
 Quadrupole moment (field-independent basis, Debye-Ang):
   XX=            -81.6186   YY=            -85.9558   ZZ=            -94.9370
   XY=              0.2798   XZ=             -3.2733   YZ=             -3.8646

  Exact polarizability: 292.070   3.731 160.819 -11.873  -4.769  85.429
 Approx polarizability: 535.773  16.286 297.954 -44.187  -6.571 169.997

                      1                      2                      3
                      A                      A                      A
 Frequencies --     68.4331                80.4290               113.4242
 Red. masses --      5.8395                 4.8341                 5.2915
 Frc consts  --      0.0161                 0.0184                 0.0401
 IR Inten    --      0.4081                 1.1084                 0.8101

                      4                      5                      6
                      A                      A                      A
 Frequencies --    146.6149               174.9410               200.4019
 Red. masses --      4.0852                 3.7116                 4.6610
 Frc consts  --      0.0517                 0.0669                 0.1103
 IR Inten    --      3.0274                 1.2239                 1.2064

                      7                      8                      9
                      A                      A                      A
 Frequencies --    250.5599               259.8789               313.0155
 Red. masses --      6.2935                 5.1853                 3.3027
 Frc consts  --      0.2328                 0.2063                 0.1907
 IR Inten    --      0.7388                 3.3298                 2.2084

                     10                     11                     12
                      A                      A                      A
 Frequencies --    324.1760               369.2618               385.6824
 Red. masses --      4.2206                 6.2129                 5.6184
 Frc consts  --      0.2613                 0.4991                 0.4924
 IR Inten    --      8.7904                 0.8916                 3.3786

                     13                     14                     15
                      A                      A                      A
 Frequencies --    412.7932               434.0660               458.7278
 Red. masses --      6.0463                 5.4067                 6.2550
 Frc consts  --      0.6070                 0.6002                 0.7755
 IR Inten    --      3.3908                 1.8051                 2.3526

                     16                     17                     18
                      A                      A                      A
 Frequencies --    520.8055               561.6624               579.8343
 Red. masses --      4.5009                 3.1947                 3.1016
 Frc consts  --      0.7193                 0.5938                 0.6144
 IR Inten    --      7.1571                 1.4893                 2.5809

                     19                     20                     21
                      A                      A                      A
 Frequencies --    585.6702               676.8395               690.8253
 Red. masses --      4.3587                 4.8932                 2.6938
 Frc consts  --      0.8809                 1.3207                 0.7575
 IR Inten    --      0.2425                 4.6127                 2.4254

                     22                     23                     24
                      A                      A                      A
 Frequencies --    705.0275               748.5427               778.7408
 Red. masses --      3.7793                 1.6254                 4.6953
 Frc consts  --      1.1068                 0.5366                 1.6777
 IR Inten    --      4.9939                42.5620                42.3264

                     25                     26                     27
                      A                      A                      A
 Frequencies --    786.6358               800.5722               801.9508
 Red. masses --      2.2030                 1.6907                 4.4690
 Frc consts  --      0.8032                 0.6384                 1.6934
 IR Inten    --     21.7121                 7.7815                24.7848

                     28                     29                     30
                      A                      A                      A
 Frequencies --    825.9244               846.8178               863.6909
 Red. masses --      3.2570                 2.5538                 1.5922
 Frc consts  --      1.3090                 1.0790                 0.6998
 IR Inten    --      8.4631                 9.6630                 8.8953

                     31                     32                     33
                      A                      A                      A
 Frequencies --    890.7255               928.5113               937.6988
 Red. masses --      1.9270                 1.6433                 1.3518
 Frc consts  --      0.9008                 0.8347                 0.7003
 IR Inten    --     19.4322                11.7046                 0.2433

                     34                     35                     36
                      A                      A                      A
 Frequencies --    989.7540              1003.8091              1013.2174
 Red. masses --      1.8534                 2.6054                 3.5087
 Frc consts  --      1.0697                 1.5467                 2.1223
 IR Inten    --      0.8854                16.7093                29.2357

                     37                     38                     39
                      A                      A                      A
 Frequencies --   1031.0119              1100.4931              1127.2055
 Red. masses --      1.6374                 1.7240                 2.0282
 Frc consts  --      1.0255                 1.2302                 1.5183
 IR Inten    --     68.5957                 0.9703                17.6691

                     40                     41                     42
                      A                      A                      A
 Frequencies --   1138.4529              1206.9564              1218.7856
 Red. masses --      1.3849                 1.7717                 3.4513
 Frc consts  --      1.0576                 1.5207                 3.0206
 IR Inten    --      0.1918                18.0183                 5.9658

                     43                     44                     45
                      A                      A                      A
 Frequencies --   1225.9704              1269.0914              1290.9701
 Red. masses --      2.3025                 1.6831                 1.9433
 Frc consts  --      2.0390                 1.5972                 1.9082
 IR Inten    --      3.6458                 8.0703                 3.1036

                     46                     47                     48
                      A                      A                      A
 Frequencies --   1310.5277              1359.5448              1368.8682
 Red. masses --      1.2556                 1.6935                 1.5053
 Frc consts  --      1.2706                 1.8443                 1.6619
 IR Inten    --     23.2099                11.4099                 6.2188

                     49                     50                     51
                      A                      A                      A
 Frequencies --   1550.8088              1595.3828              1617.6024
 Red. masses --      6.7932                 7.6075                 4.9718
 Frc consts  --      9.6259                11.4084                 7.6650
 IR Inten    --     46.2839                 2.8964                 1.3511

                     52                     53                     54
                      A                      A                      A
 Frequencies --   1619.2631              1644.8281              1655.0224
 Red. masses --     11.4278                 8.4681                 7.7050
 Frc consts  --     17.6542                13.4982                12.4346
 IR Inten    --     23.0128                13.7843                26.8385

                     55                     56                     57
                      A                      A                      A
 Frequencies --   1671.0615              3079.5994              3153.5592
 Red. masses --      7.9288                 1.0888                 1.0894
 Frc consts  --     13.0450                 6.0841                 6.3831
 IR Inten    --      0.6732                18.2588                 6.5561

                     58                     59                     60
                      A                      A                      A
 Frequencies --   3203.0751              3214.3819              3223.5156
 Red. masses --      1.0836                 1.0900                 1.0946
 Frc consts  --      6.5503                 6.6357                 6.7011
 IR Inten    --      6.3352                11.9680                13.2320

                     61                     62                     63
                      A                      A                      A
 Frequencies --   3226.9454              3239.6888              3256.0282
 Red. masses --      1.0940                 1.1035                 1.1022
 Frc consts  --      6.7122                 6.8239                 6.8847
 IR Inten    --      7.9501                 3.3838                 4.3301

 - Thermochemistry -
 -------------------
 Temperature   298.150 Kelvin.  Pressure   1.00000 Atm.
 Atom     1 has atomic number  6 and mass  12.00000

 Molecular mass:   212.04082 amu.
 Principal axes and moments of inertia in atomic units:
                           1         2         3
     Eigenvalues --  1587.798844568.319915781.35714
           X            0.99998   0.00478  -0.00490
           Y           -0.00482   0.99996  -0.00814
           Z            0.00486   0.00817   0.99995
 This molecule is an asymmetric top.
 Rotational symmetry number  1.
 Warning -- assumption of classical behavior for rotation
           may cause significant error
 Rotational temperatures (Kelvin)      0.05455     0.01896     0.01498
 Rotational constants (GHZ):           1.13663     0.39506     0.31217
 Zero-point vibrational energy     431423.1 (Joules/Mol)
                                  103.11258 (Kcal/Mol)
 Warning -- explicit consideration of  19 degrees of freedom as
           vibrations may cause significant error
 Vibrational temperatures:     98.46   115.72   163.19   210.95   251.70
          (Kelvin)            288.33   360.50   373.91   450.36   466.42
                              531.29   554.91   593.92   624.52   660.01
                              749.32   808.11   834.25   842.65   973.82
                              993.94  1014.38  1076.99  1120.43  1131.79
                             1151.84  1153.83  1188.32  1218.38  1242.66
                             1281.56  1335.92  1349.14  1424.04  1444.26
                             1457.79  1483.40  1583.36  1621.80  1637.98
                             1736.54  1753.56  1763.90  1825.94  1857.42
                             1885.56  1956.08  1969.50  2231.27  2295.40
                             2327.37  2329.76  2366.54  2381.21  2404.28
                             4430.86  4537.27  4608.51  4624.78  4637.92
                             4642.85  4661.19  4684.70

 Zero-point correction=                           0.164320 (Hartree/Particle)
 Thermal correction to Energy=                    0.176670
 Thermal correction to Enthalpy=                  0.177614
 Thermal correction to Gibbs Free Energy=         0.125767
 Sum of electronic and zero-point Energies=           -969.400700
 Sum of electronic and thermal Energies=              -969.388350
 Sum of electronic and thermal Enthalpies=            -969.387406
 Sum of electronic and thermal Free Energies=         -969.439253

                     E (Thermal)             CV                S
                      KCal/Mol        Cal/Mol-Kelvin    Cal/Mol-Kelvin
 Total                  110.862             48.884            109.121
 Electronic               0.000              0.000              0.000
 Translational            0.889              2.981             41.958
 Rotational               0.889              2.981             32.106
 Vibrational            109.085             42.923             35.057
 Vibration     1          0.598              1.969              4.198
 Vibration     2          0.600              1.962              3.880
 Vibration     3          0.607              1.938              3.209
 Vibration     4          0.617              1.906              2.716
 Vibration     5          0.627              1.873              2.382
 Vibration     6          0.638              1.839              2.129
 Vibration     7          0.663              1.762              1.727
 Vibration     8          0.668              1.746              1.663
 Vibration     9          0.701              1.649              1.346
 Vibration    10          0.709              1.627              1.289
 Vibration    11          0.742              1.535              1.083
 Vibration    12          0.754              1.501              1.017
 Vibration    13          0.777              1.442              0.917
 Vibration    14          0.795              1.396              0.845
 Vibration    15          0.817              1.342              0.770
 Vibration    16          0.876              1.204              0.608
 Vibration    17          0.917              1.114              0.521
 Vibration    18          0.936              1.075              0.486
 Vibration    19          0.943              1.062              0.475

                           ! Non-Optimized Parameters !
 Normal termination of Gaussian 16 at Tue May 16 21:15:10 2023.
