 Gaussian 16, Revision A.03,
 Gaussian 16:  ES64L-G16RevA.03 25-Dec-2016

 -----------------------------
 # opt freq b3lyp/6-31g(2df,p)
 -----------------------------

 -------------------
 Title Card Required
 -------------------
 Symbolic Z-matrix:
 Charge =  0 Multiplicity = 1

 SCF Done:  E(RB3LYP) =  -649.591576346     A.U. after   25 cycles
 SCF Done:  E(RB3LYP) =  -649.480578447     A.U. after   27 cycles
 SCF Done:  E(RB3LYP) =  -649.746732571     A.U. after   18 cycles
 SCF Done:  E(RB3LYP) =  -640.686793467     A.U. after   35 cycles
 SCF Done:  E(RB3LYP) =  -649.765854810     A.U. after   18 cycles
 SCF Done:  E(RB3LYP) =  -649.801509752     A.U. after   16 cycles
 SCF Done:  E(RB3LYP) =  -649.836336096     A.U. after   16 cycles
 SCF Done:  E(RB3LYP) =  -649.902480134     A.U. after   16 cycles
 SCF Done:  E(RB3LYP) =  -649.923779043     A.U. after   16 cycles
 SCF Done:  E(RB3LYP) =  -649.964583720     A.U. after   17 cycles
 SCF Done:  E(RB3LYP) =  -650.066303637     A.U. after   12 cycles
 SCF Done:  E(RB3LYP) =  -650.066324184     A.U. after   10 cycles
 SCF Done:  E(RB3LYP) =  -650.066339156     A.U. after   11 cycles
 SCF Done:  E(RB3LYP) =  -650.066343442     A.U. after   11 cycles
 SCF Done:  E(RB3LYP) =  -650.066345394     A.U. after   10 cycles
 SCF Done:  E(RB3LYP) =  -650.066346162     A.U. after   10 cycles
 SCF Done:  E(RB3LYP) =  -650.066346352     A.U. after    8 cycles
 SCF Done:  E(RB3LYP) =  -650.066346537     A.U. after    9 cycles
 SCF Done:  E(RB3LYP) =  -650.066346572     A.U. after    8 cycles
 Optimization completed.
    -- Stationary point found.
 Normal termination of Gaussian 16 at Fri May 19 22:29:13 2023.

 ----------------------------------------------------------------------
 #N Geom=AllCheck Guess=TCheck SCRF=Check GenChk RB3LYP/6-31G(2df,p) Fr
 eq
 ----------------------------------------------------------------------

 Structure from the checkpoint file:  "C1dCCdNCdCCdc2ncccc2dCCdC1.chk"
 -------------------
 Title Card Required
 -------------------
 Charge =  0 Multiplicity = 1

                         Standard orientation:
 ---------------------------------------------------------------------
 Center     Atomic      Atomic             Coordinates (Angstroms)
 Number     Number       Type             X           Y           Z
 ---------------------------------------------------------------------
      1          6           0        2.954656    1.327866   -0.782696
      2          6           0        3.787785    0.667254    0.121384
      3          6           0        3.680527   -0.738841   -0.084243
      4          7           0        2.867245   -1.284330    0.807956
      5          6           0        1.825095   -1.958787    0.279481
      6          6           0        0.562763   -1.461291    0.612870
      7          6           0       -0.556186   -1.557793   -0.199783
      8          6           0       -1.674149   -0.670139   -0.219266
      9          7           0       -2.830060   -1.259064   -0.651138
     10          6           0       -3.976297   -0.674047   -0.399743
     11          6           0       -4.090542    0.538426    0.321875
     12          6           0       -2.940800    1.221352    0.620345
     13          6           0       -1.673279    0.708624    0.227672
     14          6           0       -0.551872    1.588284    0.243458
     15          6           0        0.574459    1.501082   -0.562496
     16          6           0        1.838256    2.011609   -0.250487
     17          1           0        2.817296    0.862201   -1.757570
     18          1           0        3.794460    1.004003    1.153871
     19          1           0        3.748979   -1.132805   -1.107334
     20          1           0        1.942092   -2.546956   -0.639842
     21          1           0        0.561045   -0.724058    1.409780
     22          1           0       -0.645907   -2.401788   -0.880913
     23          1           0       -4.871087   -1.178735   -0.759676
     24          1           0       -5.067491    0.936059    0.572539
     25          1           0       -2.982629    2.200603    1.089329
     26          1           0       -0.604149    2.413691    0.953856
     27          1           0        0.529038    0.786204   -1.381818
     28          1           0        1.955549    2.563750    0.679817
 ---------------------------------------------------------------------

 SCF Done:  E(RB3LYP) =  -650.066346572     A.U. after    1 cycles

 The electronic state is 1-A.
 Alpha  occ. eigenvalues --  -14.33683 -14.31904 -10.24540 -10.22929 -10.22321
 Alpha  occ. eigenvalues --  -10.21710 -10.21547 -10.21427 -10.20528 -10.20515
 Alpha  occ. eigenvalues --  -10.19990 -10.19713 -10.19574 -10.19378 -10.19051
 Alpha  occ. eigenvalues --  -10.18966  -0.94809  -0.93610  -0.84282  -0.82326
 Alpha  occ. eigenvalues --   -0.80409  -0.77106  -0.76372  -0.69756  -0.68717
 Alpha  occ. eigenvalues --   -0.62270  -0.61051  -0.59239  -0.58229  -0.56057
 Alpha  occ. eigenvalues --   -0.54446  -0.51257  -0.50176  -0.49594  -0.46495
 Alpha  occ. eigenvalues --   -0.45642  -0.44972  -0.43732  -0.42047  -0.41203
 Alpha  occ. eigenvalues --   -0.39978  -0.39458  -0.38841  -0.37955  -0.37543
 Alpha  occ. eigenvalues --   -0.36691  -0.35759  -0.33011  -0.31262  -0.28774
 Alpha  occ. eigenvalues --   -0.27486  -0.25920  -0.24973  -0.20641  -0.18032
 Alpha virt. eigenvalues --   -0.07709  -0.05033  -0.03442  -0.01417   0.00642
 Alpha virt. eigenvalues --    0.05190   0.06208   0.08454   0.10437   0.12216
 Alpha virt. eigenvalues --    0.13383   0.13848   0.14311   0.15048   0.16003

 Mulliken charges:
               1
     1  C   -0.092001
     2  C   -0.099919
     3  C   -0.045385
     4  N   -0.137691
     5  C   -0.066200
     6  C   -0.082635
     7  C   -0.148397
     8  C    0.204744
     9  N   -0.307356
    10  C   -0.010005
    11  C   -0.139084
    12  C   -0.117617
    13  C    0.179250
    14  C   -0.198358
    15  C   -0.062569
    16  C   -0.104445
    17  H    0.105856
    18  H    0.124789
    19  H    0.097605
    20  H    0.090894
    21  H    0.107361
    22  H    0.109022
    23  H    0.105652
    24  H    0.099855
    25  H    0.102325
    26  H    0.090861
    27  H    0.093489
    28  H    0.099959
 Sum of Mulliken charges =  -0.00000

 Dipole moment (field-independent basis, Debye):
    X=              0.4473    Y=              1.6335    Z=             -0.3889  Tot=              1.7377
 Quadrupole moment (field-independent basis, Debye-Ang):
   XX=            -86.5996   YY=            -92.6554   ZZ=            -92.5769
   XY=             -4.5343   XZ=             -6.0267   YZ=              5.8369

  Exact polarizability: 346.578   1.134 179.469  -3.856  13.846 101.298
 Approx polarizability: 749.596  10.622 424.614   0.596  19.091 189.042

                      1                      2                      3
                      A                      A                      A
 Frequencies --     79.7874                88.3240               128.1295
 Red. masses --      5.0653                 3.5761                 5.0649
 Frc consts  --      0.0190                 0.0164                 0.0490
 IR Inten    --      0.9940                 2.2218                 4.2034

                      4                      5                      6
                      A                      A                      A
 Frequencies --    134.9695               183.1230               204.7171
 Red. masses --      2.7551                 5.4561                 4.8786
 Frc consts  --      0.0296                 0.1078                 0.1205
 IR Inten    --      1.7648                 2.3324                 2.4355

                      7                      8                      9
                      A                      A                      A
 Frequencies --    246.0304               266.4089               294.9513
 Red. masses --      3.4685                 2.0296                 3.1730
 Frc consts  --      0.1237                 0.0849                 0.1626
 IR Inten    --      0.2469                 0.1393                 4.5498

                     10                     11                     12
                      A                      A                      A
 Frequencies --    331.3832               343.7397               360.9823
 Red. masses --      4.3232                 4.4772                 3.6390
 Frc consts  --      0.2797                 0.3117                 0.2794
 IR Inten    --      0.1755                 1.3652                 2.0148

                     13                     14                     15
                      A                      A                      A
 Frequencies --    375.2283               387.7274               411.5155
 Red. masses --      3.7420                 6.0267                 3.1017
 Frc consts  --      0.3104                 0.5338                 0.3095
 IR Inten    --      5.3051                 1.7602                 7.0324

                     16                     17                     18
                      A                      A                      A
 Frequencies --    490.6495               511.8473               531.1167
 Red. masses --      4.0257                 3.9763                 3.3391
 Frc consts  --      0.5710                 0.6138                 0.5550
 IR Inten    --      1.8780                 0.7560                 4.2393

                     19                     20                     21
                      A                      A                      A
 Frequencies --    565.5542               602.5196               611.2990
 Red. masses --      3.9042                 4.4550                 4.6512
 Frc consts  --      0.7358                 0.9529                 1.0241
 IR Inten    --      5.8455                 5.4293                24.4437

                     22                     23                     24
                      A                      A                      A
 Frequencies --    629.3477               643.8265               764.1674
 Red. masses --      5.1102                 4.6253                 3.9600
 Frc consts  --      1.1925                 1.1296                 1.3625
 IR Inten    --     12.2255                 1.2068                 2.9959

                     25                     26                     27
                      A                      A                      A
 Frequencies --    787.1497               805.7404               815.6515
 Red. masses --      1.7428                 1.9096                 1.7144
 Frc consts  --      0.6362                 0.7304                 0.6720
 IR Inten    --     21.8957                15.7218                78.1131

                     28                     29                     30
                      A                      A                      A
 Frequencies --    860.1285               882.4748               889.5351
 Red. masses --      2.2646                 1.4932                 1.7433
 Frc consts  --      0.9871                 0.6851                 0.8127
 IR Inten    --      8.7351                 3.0933                13.2442

                     31                     32                     33
                      A                      A                      A
 Frequencies --    900.8482               915.6317               920.5226
 Red. masses --      1.5610                 3.1968                 1.7826
 Frc consts  --      0.7464                 1.5791                 0.8900
 IR Inten    --     29.6882                 9.0223                 8.7961

                     34                     35                     36
                      A                      A                      A
 Frequencies --    957.6863               960.8918               983.8382
 Red. masses --      1.4142                 1.3448                 1.3371
 Frc consts  --      0.7642                 0.7315                 0.7626
 IR Inten    --      9.7786                14.8792                 2.7061

                     37                     38                     39
                      A                      A                      A
 Frequencies --   1004.5996              1036.0963              1055.4373
 Red. masses --      1.2157                 1.3649                 2.0760
 Frc consts  --      0.7228                 0.8633                 1.3625
 IR Inten    --    114.6478               142.8055                63.3344

                     40                     41                     42
                      A                      A                      A
 Frequencies --   1129.7209              1135.5954              1177.4547
 Red. masses --      1.5524                 1.9818                 1.9079
 Frc consts  --      1.1674                 1.5058                 1.5584
 IR Inten    --     38.3618                11.3532                 5.3263

                     43                     44                     45
                      A                      A                      A
 Frequencies --   1186.7501              1198.6162              1222.1203
 Red. masses --      2.1785                 1.4806                 2.4733
 Frc consts  --      1.8077                 1.2533                 2.1765
 IR Inten    --      0.9021                 2.6406                13.1341

                     46                     47                     48
                      A                      A                      A
 Frequencies --   1233.6213              1247.0460              1255.6688
 Red. masses --      2.7028                 3.1727                 1.8096
 Frc consts  --      2.4234                 2.9070                 1.6811
 IR Inten    --      8.8443                18.8584                16.2662

                     49                     50                     51
                      A                      A                      A
 Frequencies --   1271.5919              1275.8741              1284.1745
 Red. masses --      1.7397                 2.4825                 1.6462
 Frc consts  --      1.6574                 2.3810                 1.5995
 IR Inten    --      0.8248                 3.4580                 7.4403

                     52                     53                     54
                      A                      A                      A
 Frequencies --   1292.1252              1297.1314              1319.9063
 Red. masses --      1.4157                 1.6847                 1.3766
 Frc consts  --      1.3926                 1.6701                 1.4130
 IR Inten    --      1.6628                 3.3859                 2.3870

                     55                     56                     57
                      A                      A                      A
 Frequencies --   1332.8561              1375.0496              1388.4150
 Red. masses --      1.8680                 3.7074                 1.5519
 Frc consts  --      1.9553                 4.1301                 1.7626
 IR Inten    --      2.2426                 3.7584                 1.3647

                     58                     59                     60
                      A                      A                      A
 Frequencies --   1406.2927              1447.1315              1466.9781
 Red. masses --      1.7922                 2.1047                 3.1368
 Frc consts  --      2.0882                 2.5969                 3.9773
 IR Inten    --      7.5628                12.5069                30.1931

                     61                     62                     63
                      A                      A                      A
 Frequencies --   1493.4706              1521.3539              1530.3662
 Red. masses --      3.3397                 3.3573                 3.4642
 Frc consts  --      4.3889                 4.5783                 4.7801
 IR Inten    --     17.7963                 8.0445                 7.9257

                     64                     65                     66
                      A                      A                      A
 Frequencies --   1583.8707              1593.4452              1631.3064
 Red. masses --      3.8775                 4.1396                 5.5559
 Frc consts  --      5.7312                 6.1928                 8.7111
 IR Inten    --      2.6706                19.4551                20.5239

                     67                     68                     69
                      A                      A                      A
 Frequencies --   3015.5665              3031.2402              3120.0065
 Red. masses --      1.0852                 1.0847                 1.0857
 Frc consts  --      5.8145                 5.8720                 6.2268
 IR Inten    --     45.0875                47.3716                 9.2279

                     70                     71                     72
                      A                      A                      A
 Frequencies --   3131.0387              3140.8247              3141.0850
 Red. masses --      1.0863                 1.0883                 1.0870
 Frc consts  --      6.2746                 6.3254                 6.3187
 IR Inten    --     10.1380                37.8307                 4.6969

                     73                     74                     75
                      A                      A                      A
 Frequencies --   3150.5135              3150.9253              3164.5846
 Red. masses --      1.0862                 1.0869                 1.0878
 Frc consts  --      6.3521                 6.3579                 6.4186
 IR Inten    --     13.2312                 3.2498                 8.6547

                     76                     77                     78
                      A                      A                      A
 Frequencies --   3173.3384              3179.2335              3197.8998
 Red. masses --      1.0880                 1.0865                 1.0954
 Frc consts  --      6.4552                 6.4702                 6.6000
 IR Inten    --      6.7214                 2.6386                26.3995

 - Thermochemistry -
 -------------------
 Temperature   298.150 Kelvin.  Pressure   1.00000 Atm.
 Atom     1 has atomic number  6 and mass  12.00000

 Molecular mass:   208.10005 amu.
 Principal axes and moments of inertia in atomic units:
                           1         2         3
     Eigenvalues --  1487.507995303.825886385.90065
           X            0.99998  -0.00292  -0.00518
           Y            0.00309   0.99941   0.03413
           Z            0.00508  -0.03415   0.99940
 This molecule is an asymmetric top.
 Rotational symmetry number  1.
 Warning -- assumption of classical behavior for rotation
           may cause significant error
 Rotational temperatures (Kelvin)      0.05823     0.01633     0.01356
 Rotational constants (GHZ):           1.21326     0.34027     0.28261
 Zero-point vibrational energy     579338.1 (Joules/Mol)
                                  138.46513 (Kcal/Mol)
 Warning -- explicit consideration of  21 degrees of freedom as
           vibrations may cause significant error
 Vibrational temperatures:    114.80   127.08   184.35   194.19   263.47
          (Kelvin)            294.54   353.98   383.30   424.37   476.79
                              494.56   519.37   539.87   557.85   592.08
                              705.94   736.43   764.16   813.71   866.89
                              879.52   905.49   926.32  1099.47  1132.53
                             1159.28  1173.54  1237.53  1269.68  1279.84
                             1296.12  1317.39  1324.43  1377.90  1382.51
                             1415.52  1445.39  1490.71  1518.54  1625.42
                             1633.87  1694.09  1707.47  1724.54  1758.36
                             1774.91  1794.22  1806.63  1829.54  1835.70
                             1847.64  1859.08  1866.28  1899.05  1917.68
                             1978.39  1997.62  2023.34  2082.10  2110.65
                             2148.77  2188.89  2201.86  2278.84  2292.61
                             2347.09  4338.73  4361.28  4488.99  4504.87
                             4518.95  4519.32  4532.89  4533.48  4553.13
                             4565.73  4574.21  4601.06

 Zero-point correction=                           0.220658 (Hartree/Particle)
 Thermal correction to Energy=                    0.233544
 Thermal correction to Enthalpy=                  0.234488
 Thermal correction to Gibbs Free Energy=         0.182006
 Sum of electronic and zero-point Energies=           -649.845688
 Sum of electronic and thermal Energies=              -649.832803
 Sum of electronic and thermal Enthalpies=            -649.831859
 Sum of electronic and thermal Free Energies=         -649.884341

                     E (Thermal)             CV                S
                      KCal/Mol        Cal/Mol-Kelvin    Cal/Mol-Kelvin
 Total                  146.551             52.319            110.458
 Electronic               0.000              0.000              0.000
 Translational            0.889              2.981             41.902
 Rotational               0.889              2.981             32.288
 Vibrational            144.773             46.357             36.268
 Vibration     1          0.600              1.963              3.896
 Vibration     2          0.601              1.957              3.697
 Vibration     3          0.611              1.925              2.974
 Vibration     4          0.613              1.918              2.874
 Vibration     5          0.631              1.863              2.296
 Vibration     6          0.640              1.833              2.090
 Vibration     7          0.660              1.769              1.759
 Vibration     8          0.672              1.735              1.619
 Vibration     9          0.689              1.683              1.445
 Vibration    10          0.714              1.613              1.253
 Vibration    11          0.722              1.588              1.195
 Vibration    12          0.735              1.553              1.118
 Vibration    13          0.746              1.523              1.058
 Vibration    14          0.756              1.496              1.009
 Vibration    15          0.775              1.445              0.921
 Vibration    16          0.846              1.271              0.682
 Vibration    17          0.867              1.224              0.629
 Vibration    18          0.886              1.181              0.585
 Vibration    19          0.921              1.106              0.513
 Vibration    20          0.961              1.026              0.445
 Vibration    21          0.970              1.008              0.431

 Optimization completed.
    -- Stationary point found.
 Normal termination of Gaussian 16 at Sat May 20 00:49:22 2023.
