 Gaussian 16, Revision A.03,
 Gaussian 16:  ES64L-G16RevA.03 25-Dec-2016

 -----------------------------
 # opt freq b3lyp/6-31g(2df,p)
 -----------------------------

 -------------------
 Title Card Required
 -------------------
 Symbolic Z-matrix:
 Charge =  0 Multiplicity = 1

 SCF Done:  E(RB3LYP) =  -689.212631394     A.U. after   17 cycles
 SCF Done:  E(RB3LYP) =  -689.260900403     A.U. after   15 cycles
 SCF Done:  E(RB3LYP) =  -689.296736330     A.U. after   15 cycles
 SCF Done:  E(RB3LYP) =  -689.308936899     A.U. after   15 cycles
 SCF Done:  E(RB3LYP) =  -689.312218493     A.U. after   15 cycles
 SCF Done:  E(RB3LYP) =  -689.315064195     A.U. after   14 cycles
 SCF Done:  E(RB3LYP) =  -689.318181577     A.U. after   15 cycles
 SCF Done:  E(RB3LYP) =  -689.324687124     A.U. after   15 cycles
 SCF Done:  E(RB3LYP) =  -689.330320953     A.U. after   15 cycles
 SCF Done:  E(RB3LYP) =  -689.334071677     A.U. after   14 cycles
 SCF Done:  E(RB3LYP) =  -689.462508956     A.U. after   12 cycles
 SCF Done:  E(RB3LYP) =  -689.463087663     A.U. after   12 cycles
 SCF Done:  E(RB3LYP) =  -689.463381718     A.U. after   12 cycles
 SCF Done:  E(RB3LYP) =  -689.463514667     A.U. after   12 cycles
 SCF Done:  E(RB3LYP) =  -689.463567532     A.U. after   10 cycles
 SCF Done:  E(RB3LYP) =  -689.463591385     A.U. after   12 cycles
 SCF Done:  E(RB3LYP) =  -689.463600127     A.U. after    9 cycles
 SCF Done:  E(RB3LYP) =  -689.463603277     A.U. after    9 cycles
 SCF Done:  E(RB3LYP) =  -689.463604018     A.U. after    7 cycles
 Optimization completed.
    -- Stationary point found.
 Normal termination of Gaussian 16 at Sat May 20 17:03:29 2023.

 ----------------------------------------------------------------------
 #N Geom=AllCheck Guess=TCheck SCRF=Check GenChk RB3LYP/6-31G(2df,p) Fr
 eq
 ----------------------------------------------------------------------

 Structure from the checkpoint file:  "C1dCCdc2[nH]ccc2dCCdC2CCqdC1rCdCN2.chk"
 -------------------
 Title Card Required
 -------------------
 Charge =  0 Multiplicity = 1

                         Standard orientation:
 ---------------------------------------------------------------------
 Center     Atomic      Atomic             Coordinates (Angstroms)
 Number     Number       Type             X           Y           Z
 ---------------------------------------------------------------------
      1          6           0        0.689016    2.602994    0.019951
      2          6           0       -0.364142    1.676970    0.054558
      3          6           0       -1.738882    1.748652   -0.118723
      4          6           0       -2.546916    0.579732   -0.082723
      5          7           0       -3.886136    0.552216    0.257945
      6          6           0       -4.291711   -0.747894    0.471315
      7          6           0       -3.240820   -1.592959    0.234429
      8          6           0       -2.133064   -0.789435   -0.184957
      9          6           0       -0.827494   -1.045830   -0.671161
     10          6           0        0.228694   -1.816158   -0.216421
     11          6           0        1.539909   -1.350076   -0.416976
     12          6           0        1.925027   -0.076321   -1.120656
     13          6           0        2.495289    0.859484   -0.058674
     14          6           0        2.006204    2.154892    0.192642
     15          6           0        3.600557    0.260818    0.590759
     16          6           0        3.689944   -1.111847    0.629761
     17          7           0        2.618957   -1.893198    0.220386
     18          1           0        0.493696    3.671314   -0.045481
     19          1           0       -0.019725    0.698624    0.354080
     20          1           0       -2.233575    2.712589   -0.233770
     21          1           0       -4.417565    1.365192    0.517117
     22          1           0       -5.312550   -0.964776    0.745288
     23          1           0       -3.279511   -2.670955    0.259116
     24          1           0       -0.533831   -0.272742   -1.368369
     25          1           0        0.067879   -2.616919    0.503572
     26          1           0        1.111635    0.378215   -1.673558
     27          1           0        2.729500   -0.301663   -1.837773
     28          1           0        2.734033    2.865503    0.588871
     29          1           0        4.329782    0.848682    1.139417
     30          1           0        4.500259   -1.649492    1.102433
     31          1           0        2.510562   -2.794834    0.662000
 ---------------------------------------------------------------------

 SCF Done:  E(RB3LYP) =  -689.463604018     A.U. after    1 cycles

 The electronic state is 1-A.
 Alpha  occ. eigenvalues --  -14.37908 -14.36536 -10.22589 -10.20960 -10.20770
 Alpha  occ. eigenvalues --  -10.20684 -10.18207 -10.17974 -10.17856 -10.17623
 Alpha  occ. eigenvalues --  -10.17601 -10.17481 -10.17117 -10.17005 -10.16594
 Alpha  occ. eigenvalues --  -10.16475 -10.15980  -0.96844  -0.96726  -0.82030
 Alpha  occ. eigenvalues --   -0.80609  -0.78374  -0.77238  -0.74774  -0.71853
 Alpha  occ. eigenvalues --   -0.69391  -0.65674  -0.63297  -0.60856  -0.58312
 Alpha  occ. eigenvalues --   -0.57945  -0.54602  -0.53440  -0.52045  -0.50855
 Alpha  occ. eigenvalues --   -0.48036  -0.47047  -0.45153  -0.43804  -0.43145
 Alpha  occ. eigenvalues --   -0.42400  -0.41845  -0.41352  -0.40042  -0.39661
 Alpha  occ. eigenvalues --   -0.37547  -0.37425  -0.36545  -0.36404  -0.34786
 Alpha  occ. eigenvalues --   -0.33690  -0.33033  -0.30435  -0.27841  -0.26111
 Alpha  occ. eigenvalues --   -0.23979  -0.22965  -0.17347  -0.14988
 Alpha virt. eigenvalues --   -0.04428  -0.01987   0.04501   0.06072   0.06765
 Alpha virt. eigenvalues --    0.07838   0.08726   0.09634   0.11277   0.12807
 Alpha virt. eigenvalues --    0.13760   0.14011   0.14688   0.15470   0.16238

 Mulliken charges:
               1
     1  C   -0.185295
     2  C   -0.021592
     3  C   -0.297693
     4  C    0.288903
     5  N   -0.343052
     6  C   -0.057171
     7  C   -0.293416
     8  C    0.221939
     9  C   -0.214530
    10  C   -0.244362
    11  C    0.340913
    12  C   -0.404568
    13  C    0.233244
    14  C   -0.177408
    15  C   -0.172938
    16  C   -0.075744
    17  N   -0.306784
    18  H    0.070804
    19  H    0.123559
    20  H    0.073002
    21  H    0.258126
    22  H    0.121699
    23  H    0.097228
    24  H    0.115997
    25  H    0.075177
    26  H    0.132865
    27  H    0.106697
    28  H    0.080531
    29  H    0.090146
    30  H    0.108251
    31  H    0.255471
 Sum of Mulliken charges =  -0.00000

 Dipole moment (field-independent basis, Debye):
    X=             -1.0020    Y=             -1.3664    Z=              1.3305  Tot=              2.1543
 Quadrupole moment (field-independent basis, Debye-Ang):
   XX=            -81.2463   YY=            -89.4347   ZZ=           -101.5753
   XY=             -9.8756   XZ=             -0.0339   YZ=             -2.9850

  Exact polarizability: 345.581  -1.830 210.061   6.954  -0.954  90.199
 Approx polarizability: 713.566 -23.250 458.859  26.749   9.816 160.673
