 Gaussian 16, Revision A.03,
 Gaussian 16:  ES64L-G16RevA.03 25-Dec-2016

 -----------------------------
 # opt freq b3lyp/6-31g(2df,p)
 -----------------------------

 -------------------
 Title Card Required
 -------------------
 Symbolic Z-matrix:
 Charge =  0 Multiplicity = 1

 SCF Done:  E(RB3LYP) =  -633.826115107     A.U. after   17 cycles
 SCF Done:  E(RB3LYP) =  -633.875742045     A.U. after   15 cycles
 SCF Done:  E(RB3LYP) =  -633.912406305     A.U. after   15 cycles
 SCF Done:  E(RB3LYP) =  -633.936042488     A.U. after   16 cycles
 SCF Done:  E(RB3LYP) =  -633.947604837     A.U. after   16 cycles
 SCF Done:  E(RB3LYP) =  -633.948517264     A.U. after   11 cycles
 SCF Done:  E(RB3LYP) =  -633.957541031     A.U. after   15 cycles
 SCF Done:  E(RB3LYP) =  -633.963077147     A.U. after   15 cycles
 SCF Done:  E(RB3LYP) =  -633.967753629     A.U. after   14 cycles
 SCF Done:  E(RB3LYP) =  -633.976627119     A.U. after   15 cycles
 SCF Done:  E(RB3LYP) =  -634.035989937     A.U. after   13 cycles
 SCF Done:  E(RB3LYP) =  -634.036262377     A.U. after   13 cycles
 SCF Done:  E(RB3LYP) =  -634.036404895     A.U. after   12 cycles
 SCF Done:  E(RB3LYP) =  -634.036619141     A.U. after   11 cycles
 SCF Done:  E(RB3LYP) =  -634.036667009     A.U. after   11 cycles
 SCF Done:  E(RB3LYP) =  -634.036678969     A.U. after   11 cycles
 SCF Done:  E(RB3LYP) =  -634.036683137     A.U. after    9 cycles
 SCF Done:  E(RB3LYP) =  -634.036684755     A.U. after    9 cycles
 SCF Done:  E(RB3LYP) =  -634.036685151     A.U. after    8 cycles
 Optimization completed.
    -- Stationary point found.

 The electronic state is 1-A.
 Alpha  occ. eigenvalues --  -14.31555 -10.22759 -10.22339 -10.21851 -10.21655
 Alpha  occ. eigenvalues --  -10.21163 -10.20984 -10.20750 -10.19430 -10.19352
 Alpha  occ. eigenvalues --  -10.19334 -10.18840 -10.18208 -10.18144 -10.17769
 Alpha  occ. eigenvalues --  -10.17514  -0.92389  -0.85938  -0.84533  -0.81473
 Alpha  occ. eigenvalues --   -0.78457  -0.75619  -0.73620  -0.69814  -0.66538
 Alpha  occ. eigenvalues --   -0.60609  -0.59461  -0.58609  -0.58296  -0.55886
 Alpha  occ. eigenvalues --   -0.53974  -0.50800  -0.49024  -0.48150  -0.45722
 Alpha  occ. eigenvalues --   -0.44535  -0.44198  -0.43304  -0.41552  -0.40937
 Alpha  occ. eigenvalues --   -0.40325  -0.39082  -0.38914  -0.37021  -0.36312
 Alpha  occ. eigenvalues --   -0.35389  -0.35152  -0.34202  -0.31664  -0.30681
 Alpha  occ. eigenvalues --   -0.28257  -0.26137  -0.23542  -0.20193  -0.18080
 Alpha virt. eigenvalues --   -0.07050  -0.03094  -0.02945   0.00140   0.01469
 Alpha virt. eigenvalues --    0.04328   0.06051   0.07289   0.10636   0.12024
 Alpha virt. eigenvalues --    0.12986   0.13462   0.14330   0.15030   0.15867

 Mulliken charges:
               1
     1  C   -0.078237
     2  C   -0.109963
     3  C   -0.074680
     4  C   -0.085026
     5  C   -0.196520
     6  C    0.220609
     7  C   -0.163933
     8  C   -0.123685
     9  C   -0.115842
    10  C   -0.144345
    11  C    0.192842
    12  N   -0.283036
    13  C    0.003633
    14  C   -0.138172
    15  C   -0.057870
    16  C   -0.130180
    17  H    0.110310
    18  H    0.107561
    19  H    0.094601
    20  H    0.105837
    21  H    0.093771
    22  H    0.089048
    23  H    0.092728
    24  H    0.095860
    25  H    0.098657
    26  H    0.083689
    27  H    0.099942
    28  H    0.103462
    29  H    0.108938
 Sum of Mulliken charges =  -0.00000

 Dipole moment (field-independent basis, Debye):
    X=             -1.0710    Y=             -1.0146    Z=             -1.2184  Tot=              1.9134
 Quadrupole moment (field-independent basis, Debye-Ang):
   XX=            -88.3208   YY=            -94.7937   ZZ=            -90.3270
   XY=              0.1792   XZ=             -0.5569   YZ=              3.0086

 Normal termination of Gaussian 16 at Wed May 17 05:47:30 2023.

 ----------------------------------------------------------------------
 #N Geom=AllCheck Guess=TCheck SCRF=Check GenChk RB3LYP/6-31G(2df,p) Fr
 eq
 ----------------------------------------------------------------------

 Structure from the checkpoint file:  "C1dCCdCCdc2ccccc2dNCdCCdC1.chk"
 -------------------
 Title Card Required
 -------------------
 Charge =  0 Multiplicity = 1

                         Standard orientation:
 ---------------------------------------------------------------------
 Center     Atomic      Atomic             Coordinates (Angstroms)
 Number     Number       Type             X           Y           Z
 ---------------------------------------------------------------------
      1          6           0       -3.788000   -0.594656   -0.229501
      2          6           0       -3.031902   -1.371290    0.703903
      3          6           0       -1.910838   -1.967243    0.162999
      4          6           0       -0.606415   -1.558772    0.593339
      5          6           0        0.463766   -1.554411   -0.246976
      6          6           0        1.660915   -0.719118   -0.151147
      7          6           0        2.904030   -1.314353   -0.451621
      8          6           0        4.101069   -0.642759   -0.286252
      9          6           0        4.088762    0.671791    0.195034
     10          6           0        2.885905    1.299453    0.461417
     11          6           0        1.653139    0.656890    0.233042
     12          7           0        0.504420    1.417912    0.434097
     13          6           0       -0.413772    1.543287   -0.463763
     14          6           0       -1.728997    1.992395   -0.098322
     15          6           0       -2.808250    1.438669   -0.748139
     16          6           0       -3.792297    0.766100    0.047582
     17          1           0       -3.730697   -0.906406   -1.271231
     18          1           0       -2.967101   -0.984609    1.718723
     19          1           0       -1.976021   -2.363224   -0.849860
     20          1           0       -0.553049   -0.970300    1.505942
     21          1           0        0.427993   -2.217404   -1.112739
     22          1           0        2.906556   -2.347125   -0.788662
     23          1           0        5.040070   -1.138329   -0.507230
     24          1           0        5.020749    1.207061    0.344669
     25          1           0        2.856055    2.327040    0.806450
     26          1           0       -0.280321    1.143510   -1.478820
     27          1           0       -1.831522    2.299695    0.939545
     28          1           0       -2.666124    1.080359   -1.766894
     29          1           0       -3.840228    1.068451    1.091849
 ---------------------------------------------------------------------

 SCF Done:  E(RB3LYP) =  -634.036685151     A.U. after    1 cycles
