 Gaussian 16, Revision A.03,
 Gaussian 16:  ES64L-G16RevA.03 25-Dec-2016

 -----------------------------
 # opt freq b3lyp/6-31g(2df,p)
 -----------------------------

 -------------------
 Title Card Required
 -------------------
 Symbolic Z-matrix:
 Charge =  0 Multiplicity = 1

 SCF Done:  E(RB3LYP) =  -578.488515116     A.U. after   18 cycles
 SCF Done:  E(RB3LYP) =  -578.567109099     A.U. after   13 cycles
 SCF Done:  E(RB3LYP) =  -578.652641090     A.U. after   14 cycles
 SCF Done:  E(RB3LYP) =  -578.682830468     A.U. after   15 cycles
 SCF Done:  E(RB3LYP) =  -578.686602517     A.U. after   13 cycles
 SCF Done:  E(RB3LYP) =  -578.687352511     A.U. after   12 cycles
 SCF Done:  E(RB3LYP) =  -578.687505616     A.U. after   11 cycles
 SCF Done:  E(RB3LYP) =  -578.687910464     A.U. after   13 cycles
 SCF Done:  E(RB3LYP) =  -578.688792239     A.U. after   12 cycles
 SCF Done:  E(RB3LYP) =  -578.692017647     A.U. after   14 cycles
 SCF Done:  E(RB3LYP) =  -578.712255502     A.U. after   12 cycles
 SCF Done:  E(RB3LYP) =  -578.712704724     A.U. after   12 cycles
 SCF Done:  E(RB3LYP) =  -578.712770262     A.U. after   12 cycles
 SCF Done:  E(RB3LYP) =  -578.712850487     A.U. after   10 cycles
 SCF Done:  E(RB3LYP) =  -578.712872354     A.U. after   11 cycles
 SCF Done:  E(RB3LYP) =  -578.712879215     A.U. after    9 cycles
 SCF Done:  E(RB3LYP) =  -578.712881923     A.U. after    9 cycles
 SCF Done:  E(RB3LYP) =  -578.712883528     A.U. after    9 cycles
 SCF Done:  E(RB3LYP) =  -578.712883836     A.U. after    7 cycles
 Optimization completed.
    -- Stationary point found.
 Normal termination of Gaussian 16 at Fri May 19 00:39:05 2023.

 ----------------------------------------------------------------------
 #N Geom=AllCheck Guess=TCheck SCRF=Check GenChk RB3LYP/6-31G(2df,p) Fr
 eq
 ----------------------------------------------------------------------

 Structure from the checkpoint file:  "C1dCCC2dCCdC3CdCCdC3CdCC2dC1.chk"
 -------------------
 Title Card Required
 -------------------
 Charge =  0 Multiplicity = 1

                         Standard orientation:
 ---------------------------------------------------------------------
 Center     Atomic      Atomic             Coordinates (Angstroms)
 Number     Number       Type             X           Y           Z
 ---------------------------------------------------------------------
      1          6           0       -3.842823    0.137812    0.332348
      2          6           0       -3.423916   -1.113461    0.586235
      3          6           0       -1.948551   -1.468971    0.549326
      4          6           0       -1.230881   -0.526157   -0.376304
      5          6           0       -0.174082   -0.776880   -1.165209
      6          6           0        0.993686   -1.563321   -0.768448
      7          6           0        1.945037   -0.783870   -0.204212
      8          6           0        3.275252   -1.202296    0.218445
      9          6           0        3.957474   -0.102628    0.629425
     10          6           0        3.099634    1.057135    0.501248
     11          6           0        1.858055    0.706151    0.022800
     12          6           0        0.833462    1.739868   -0.141303
     13          6           0       -0.522671    1.866013   -0.303718
     14          6           0       -1.610090    0.894085   -0.283761
     15          6           0       -2.892613    1.201739    0.046337
     16          1           0       -4.896360    0.388831    0.410105
     17          1           0       -4.124531   -1.888702    0.879166
     18          1           0       -1.804529   -2.505748    0.231995
     19          1           0       -1.548243   -1.406642    1.577974
     20          1           0        0.100283    0.040212   -1.826038
     21          1           0        1.125802   -2.636598   -0.881208
     22          1           0        3.632627   -2.221577    0.169011
     23          1           0        4.976713   -0.075805    0.992119
     24          1           0        3.392631    2.065505    0.767579
     25          1           0        1.311783    2.715616   -0.049656
     26          1           0       -0.868242    2.899158   -0.315954
     27          1           0       -3.199775    2.234450    0.185653
 ---------------------------------------------------------------------

 SCF Done:  E(RB3LYP) =  -578.712883836     A.U. after    1 cycles

 The electronic state is 1-A.
 Alpha  occ. eigenvalues --  -10.21258 -10.19516 -10.19445 -10.19389 -10.19192
 Alpha  occ. eigenvalues --  -10.18995 -10.18913 -10.18749 -10.18609 -10.18322
 Alpha  occ. eigenvalues --  -10.18287 -10.18025 -10.17968 -10.17749 -10.17724
 Alpha  occ. eigenvalues --   -0.87095  -0.85287  -0.79934  -0.78618  -0.74651
 Alpha  occ. eigenvalues --   -0.74091  -0.69941  -0.67044  -0.63065  -0.61298
 Alpha  occ. eigenvalues --   -0.56797  -0.55689  -0.53987  -0.50415  -0.50144
 Alpha  occ. eigenvalues --   -0.48529  -0.47037  -0.44313  -0.43592  -0.42585
 Alpha  occ. eigenvalues --   -0.41887  -0.40798  -0.40139  -0.37838  -0.37026
 Alpha  occ. eigenvalues --   -0.36525  -0.36393  -0.34924  -0.34241  -0.32361
 Alpha  occ. eigenvalues --   -0.31019  -0.28507  -0.26819  -0.23774  -0.21699
 Alpha  occ. eigenvalues --   -0.17621
 Alpha virt. eigenvalues --   -0.07103  -0.05442   0.00495   0.03918   0.08488
 Alpha virt. eigenvalues --    0.09570   0.10616   0.11018   0.12347   0.13487
 Alpha virt. eigenvalues --    0.13966   0.14232   0.14827   0.16280   0.17351

 Mulliken charges:
               1
     1  C   -0.056866
     2  C   -0.094573
     3  C   -0.381518
     4  C    0.249016
     5  C   -0.292012
     6  C   -0.249271
     7  C    0.234718
     8  C   -0.193955
     9  C   -0.123452
    10  C   -0.186869
    11  C    0.186358
    12  C   -0.141561
    13  C   -0.184889
    14  C    0.224424
    15  C   -0.219632
    16  H    0.089719
    17  H    0.097019
    18  H    0.117364
    19  H    0.127994
    20  H    0.123469
    21  H    0.113565
    22  H    0.100202
    23  H    0.099491
    24  H    0.096640
    25  H    0.089649
    26  H    0.084751
    27  H    0.090218
 Sum of Mulliken charges =  -0.00000

 Dipole moment (field-independent basis, Debye):
    X=             -0.2018    Y=             -0.7324    Z=              0.5251  Tot=              0.9235
 Quadrupole moment (field-independent basis, Debye-Ang):
   XX=            -81.0796   YY=            -78.0842   ZZ=            -89.8475
   XY=             -0.1485   XZ=             -0.6726   YZ=              0.3003

  Exact polarizability: 293.647  -1.738 161.110   3.440   2.536  85.151
 Approx polarizability: 545.237  -0.317 292.393  12.490  13.349 162.659

                      1                      2                      3
                      A                      A                      A
 Frequencies --     52.1649                89.3352               137.6254
 Red. masses --      4.6101                 3.1345                 3.9965
 Frc consts  --      0.0074                 0.0147                 0.0446
 IR Inten    --      0.2287                 0.5081                 0.2440

                      4                      5                      6
                      A                      A                      A
 Frequencies --    170.4205               241.0521               277.5719
 Red. masses --      3.8901                 3.4382                 2.9987
 Frc consts  --      0.0666                 0.1177                 0.1361
 IR Inten    --      0.0656                 4.7728                 1.9229

                      7                      8                      9
                      A                      A                      A
 Frequencies --    292.4524               312.5725               318.4922
 Red. masses --      2.8824                 4.2390                 4.4794
 Frc consts  --      0.1452                 0.2440                 0.2677
 IR Inten    --      3.2032                 2.9606                 3.4599

                     10                     11                     12
                      A                      A                      A
 Frequencies --    426.6148               469.3263               492.0822
 Red. masses --      3.7280                 4.4221                 3.5486
 Frc consts  --      0.3998                 0.5739                 0.5063
 IR Inten    --      5.5763                 1.0882                 1.4531

                     13                     14                     15
                      A                      A                      A
 Frequencies --    499.3974               509.9399               559.6464
 Red. masses --      3.6608                 2.7156                 3.4414
 Frc consts  --      0.5379                 0.4161                 0.6351
 IR Inten    --      1.8485                 2.3641                 6.0861

                     16                     17                     18
                      A                      A                      A
 Frequencies --    571.8257               625.6173               641.6969
 Red. masses --      3.7393                 4.3761                 3.3480
 Frc consts  --      0.7204                 1.0092                 0.8123
 IR Inten    --      1.8269                 6.3010                 5.3294

                     19                     20                     21
                      A                      A                      A
 Frequencies --    687.4278               708.2655               720.8176
 Red. masses --      2.1183                 1.8649                 2.5467
 Frc consts  --      0.5898                 0.5512                 0.7796
 IR Inten    --     22.3527                 8.5754                11.1881

                     22                     23                     24
                      A                      A                      A
 Frequencies --    750.4085               760.6838               779.0063
 Red. masses --      2.8715                 2.0841                 2.6575
 Frc consts  --      0.9527                 0.7105                 0.9502
 IR Inten    --      4.4915                16.0806                13.1940

                     25                     26                     27
                      A                      A                      A
 Frequencies --    804.2452               815.8990               855.1804
 Red. masses --      1.4689                 4.9166                 4.1810
 Frc consts  --      0.5598                 1.9284                 1.8015
 IR Inten    --      2.1186                 9.1700                14.2354

                     28                     29                     30
                      A                      A                      A
 Frequencies --    875.1568               889.0312               899.0187
 Red. masses --      1.6274                 1.7222                 1.6453
 Frc consts  --      0.7344                 0.8020                 0.7835
 IR Inten    --     35.9994                 9.2269                24.3326

                     31                     32                     33
                      A                      A                      A
 Frequencies --    924.5533               932.3263               943.2236
 Red. masses --      1.3629                 2.0051                 2.5729
 Frc consts  --      0.6864                 1.0269                 1.3487
 IR Inten    --      0.3634                34.0983                 3.0381

                     34                     35                     36
                      A                      A                      A
 Frequencies --    975.0846               980.5983               991.6814
 Red. masses --      1.4139                 1.3333                 1.2732
 Frc consts  --      0.7920                 0.7554                 0.7377
 IR Inten    --     16.5670                 2.8300                 1.2530

                     37                     38                     39
                      A                      A                      A
 Frequencies --   1030.0465              1039.2072              1078.4970
 Red. masses --      1.8955                 1.8708                 3.5276
 Frc consts  --      1.1849                 1.1904                 2.4175
 IR Inten    --      2.3507                 7.1285                 2.2851

                     40                     41                     42
                      A                      A                      A
 Frequencies --   1103.0186              1123.4403              1145.9999
 Red. masses --      1.4065                 1.9967                 2.5446
 Frc consts  --      1.0082                 1.4848                 1.9690
 IR Inten    --      6.3668                 0.5299                 9.4297

                     43                     44                     45
                      A                      A                      A
 Frequencies --   1167.7134              1189.3212              1200.5794
 Red. masses --      1.5638                 1.2118                 1.5343
 Frc consts  --      1.2563                 1.0099                 1.3030
 IR Inten    --      2.1657                 2.4619                 7.0116

                     46                     47                     48
                      A                      A                      A
 Frequencies --   1249.8281              1261.9847              1305.2318
 Red. masses --      1.5821                 1.6095                 1.5872
 Frc consts  --      1.4561                 1.5102                 1.5931
 IR Inten    --      1.5231                 0.0958                 2.5610

                     49                     50                     51
                      A                      A                      A
 Frequencies --   1316.2468              1356.0215              1376.3514
 Red. masses --      1.5631                 2.2803                 1.6439
 Frc consts  --      1.5955                 2.4704                 1.8347
 IR Inten    --      2.6194                 1.9174                20.6145

                     52                     53                     54
                      A                      A                      A
 Frequencies --   1392.5408              1412.6880              1423.0010
 Red. masses --      1.8363                 1.6367                 1.8938
 Frc consts  --      2.0980                 1.9245                 2.2594
 IR Inten    --      6.1747                11.4452                10.2699

                     55                     56                     57
                      A                      A                      A
 Frequencies --   1442.8812              1451.3045              1486.6297
 Red. masses --      1.7636                 1.1250                 3.0531
 Frc consts  --      2.1632                 1.3961                 3.9755
 IR Inten    --     12.7611                 4.2878                10.6865

                     58                     59                     60
                      A                      A                      A
 Frequencies --   1568.7700              1584.9253              1597.3566
 Red. masses --      4.9857                 6.6926                 5.3729
 Frc consts  --      7.2293                 9.9053                 8.0772
 IR Inten    --     13.5491                21.1570                 3.9150

                     61                     62                     63
                      A                      A                      A
 Frequencies --   1639.5701              1669.8160              1682.0943
 Red. masses --      8.5037                 6.3249                 7.5185
 Frc consts  --     13.4685                10.3906                12.5338
 IR Inten    --     20.3750                17.9781                 4.4032

                     64                     65                     66
                      A                      A                      A
 Frequencies --   2938.2072              3076.8476              3104.5302
 Red. masses --      1.0725                 1.0861                 1.0824
 Frc consts  --      5.4551                 6.0582                 6.1466
 IR Inten    --     18.5697                10.6320                 2.6836

                     67                     68                     69
                      A                      A                      A
 Frequencies --   3132.8715              3146.8231              3155.1721
 Red. masses --      1.0884                 1.0846                 1.0901
 Frc consts  --      6.2937                 6.3280                 6.3941
 IR Inten    --     31.3264                 5.5602                19.9270

                     70                     71                     72
                      A                      A                      A
 Frequencies --   3160.1379              3170.8342              3189.0818
 Red. masses --      1.0852                 1.0879                 1.0976
 Frc consts  --      6.3852                 6.4446                 6.5768
 IR Inten    --     13.1772                18.0886                35.5715

                     73                     74                     75
                      A                      A                      A
 Frequencies --   3201.4515              3215.8647              3236.6231
 Red. masses --      1.0895                 1.0900                 1.1039
 Frc consts  --      6.5793                 6.6413                 6.8136
 IR Inten    --     10.4385                11.6323                14.9233

 - Thermochemistry -
 -------------------
 Temperature   298.150 Kelvin.  Pressure   1.00000 Atm.
 Atom     1 has atomic number  6 and mass  12.00000

 Molecular mass:   192.09390 amu.
 Principal axes and moments of inertia in atomic units:
                           1         2         3
     Eigenvalues --  1193.333894361.759695164.37759
           X            1.00000   0.00231  -0.00173
           Y           -0.00232   0.99997  -0.00689
           Z            0.00171   0.00690   0.99997
 This molecule is an asymmetric top.
 Rotational symmetry number  1.
 Warning -- assumption of classical behavior for rotation
           may cause significant error
 Rotational temperatures (Kelvin)      0.07258     0.01986     0.01677
 Rotational constants (GHZ):           1.51235     0.41376     0.34946
 Zero-point vibrational energy     574231.2 (Joules/Mol)
                                  137.24454 (Kcal/Mol)
 Warning -- explicit consideration of  16 degrees of freedom as
           vibrations may cause significant error
 Vibrational temperatures:     75.05   128.53   198.01   245.20   346.82
          (Kelvin)            399.36   420.77   449.72   458.24   613.80
                              675.26   708.00   718.52   733.69   805.21
                              822.73   900.12   923.26   989.06  1019.04
                             1037.10  1079.67  1094.45  1120.82  1157.13
                             1173.90  1230.41  1259.16  1279.12  1293.49
                             1330.23  1341.41  1357.09  1402.93  1410.86
                             1426.81  1482.01  1495.19  1551.72  1587.00
                             1616.38  1648.84  1680.08  1711.17  1727.37
                             1798.22  1815.71  1877.94  1893.79  1951.01
                             1980.26  2003.56  2032.54  2047.38  2075.98
                             2088.10  2138.93  2257.11  2280.35  2298.24
                             2358.98  2402.49  2420.16  4227.42  4426.90
                             4466.73  4507.50  4527.58  4539.59  4546.73
                             4562.12  4588.38  4606.17  4626.91  4656.78

 Zero-point correction=                           0.218713 (Hartree/Particle)
 Thermal correction to Energy=                    0.230015
 Thermal correction to Enthalpy=                  0.230959
 Thermal correction to Gibbs Free Energy=         0.181550
 Sum of electronic and zero-point Energies=           -578.494171
 Sum of electronic and thermal Energies=              -578.482869
 Sum of electronic and thermal Enthalpies=            -578.481925
 Sum of electronic and thermal Free Energies=         -578.531334

                     E (Thermal)             CV                S
                      KCal/Mol        Cal/Mol-Kelvin    Cal/Mol-Kelvin
 Total                  144.337             47.439            103.991
 Electronic               0.000              0.000              0.000
 Translational            0.889              2.981             41.664
 Rotational               0.889              2.981             31.664
 Vibrational            142.559             41.478             30.663
 Vibration     1          0.596              1.977              4.734
 Vibration     2          0.602              1.957              3.675
 Vibration     3          0.614              1.916              2.837
 Vibration     4          0.626              1.879              2.431
 Vibration     5          0.658              1.778              1.795
 Vibration     6          0.679              1.715              1.549
 Vibration     7          0.688              1.688              1.460
 Vibration     8          0.701              1.650              1.349
 Vibration     9          0.705              1.638              1.318
 Vibration    10          0.788              1.412              0.870
 Vibration    11          0.826              1.318              0.739
 Vibration    12          0.848              1.268              0.678
 Vibration    13          0.855              1.251              0.660
 Vibration    14          0.865              1.228              0.634
 Vibration    15          0.915              1.119              0.525
 Vibration    16          0.928              1.092              0.501

 Optimization completed.
    -- Stationary point found.
 Normal termination of Gaussian 16 at Fri May 19 02:56:46 2023.
