 Gaussian 16, Revision A.03,
 Gaussian 16:  ES64L-G16RevA.03 25-Dec-2016

 -----------------------------
 # opt freq b3lyp/6-31g(2df,p)
 -----------------------------

 -------------------
 Title Card Required
 -------------------
 Symbolic Z-matrix:
 Charge =  0 Multiplicity = 1

 SCF Done:  E(RB3LYP) =  -1125.65620796     A.U. after   16 cycles
 SCF Done:  E(RB3LYP) =  -1125.70838824     A.U. after   13 cycles
 SCF Done:  E(RB3LYP) =  -1125.73323666     A.U. after   15 cycles
 SCF Done:  E(RB3LYP) =  -1125.75075007     A.U. after   13 cycles
 SCF Done:  E(RB3LYP) =  -1125.75510303     A.U. after   13 cycles
 SCF Done:  E(RB3LYP) =  -1125.75609982     A.U. after   13 cycles
 SCF Done:  E(RB3LYP) =  -1125.75657591     A.U. after   12 cycles
 SCF Done:  E(RB3LYP) =  -1125.75675372     A.U. after   11 cycles
 SCF Done:  E(RB3LYP) =  -1125.75678565     A.U. after   10 cycles
 SCF Done:  E(RB3LYP) =  -1125.75678351     A.U. after   10 cycles
 SCF Done:  E(RB3LYP) =  -1125.75680627     A.U. after   10 cycles
 SCF Done:  E(RB3LYP) =  -1125.75681186     A.U. after    8 cycles
 SCF Done:  E(RB3LYP) =  -1125.75681232     A.U. after    8 cycles
 SCF Done:  E(RB3LYP) =  -1125.75681250     A.U. after    7 cycles
 Optimization completed.
    -- Stationary point found.
 Normal termination of Gaussian 16 at Tue May 16 10:19:51 2023.

 ----------------------------------------------------------------------
 #N Geom=AllCheck Guess=TCheck SCRF=Check GenChk RB3LYP/6-31G(2df,p) Fr
 eq
 ----------------------------------------------------------------------

 Structure from the checkpoint file:  "C1dCCdCc2cccnc2CdCCdCNdCSCdC1.chk"
 -------------------
 Title Card Required
 -------------------
 Charge =  0 Multiplicity = 1

                         Standard orientation:
 ---------------------------------------------------------------------
 Center     Atomic      Atomic             Coordinates (Angstroms)
 Number     Number       Type             X           Y           Z
 ---------------------------------------------------------------------
      1          6           0        2.033196    1.472256   -0.465799
      2          6           0        0.826785    1.914134   -0.038217
      3          6           0       -0.401931    1.205031   -0.311552
      4          6           0       -1.576773    1.432681    0.314451
      5          6           0       -2.868891    0.741955    0.166315
      6          6           0       -4.017612    1.504949    0.433179
      7          6           0       -5.284661    0.992966    0.206951
      8          6           0       -5.381137   -0.295557   -0.309610
      9          7           0       -4.322409   -1.071697   -0.527447
     10          6           0       -3.094374   -0.603643   -0.255574
     11          6           0       -2.004345   -1.576486   -0.454430
     12          6           0       -0.997642   -1.764651    0.417110
     13          6           0        0.279199   -2.339202    0.073501
     14          6           0        1.378885   -1.950051    0.754333
     15          7           0        2.622974   -1.889073    0.136328
     16          6           0        3.353259   -0.923680    0.537305
     17         16           0        4.784414   -0.335115   -0.326387
     18          6           0        4.509919    1.404320   -0.075623
     19          6           0        3.319757    2.041965   -0.111530
     20          1           0        2.053774    0.581571   -1.087817
     21          1           0        0.772918    2.782494    0.618339
     22          1           0       -0.324379    0.388815   -1.021384
     23          1           0       -1.614344    2.279400    1.000780
     24          1           0       -3.898355    2.523512    0.791199
     25          1           0       -6.173563    1.582671    0.400257
     26          1           0       -6.350020   -0.726362   -0.551447
     27          1           0       -2.024063   -2.121432   -1.395900
     28          1           0       -1.037100   -1.237906    1.368385
     29          1           0        0.399964   -2.824733   -0.891165
     30          1           0        1.259332   -1.436977    1.713997
     31          1           0        3.095334   -0.286729    1.391217
     32          1           0        5.417739    1.950497    0.154187
     33          1           0        3.326394    3.090488    0.184499
 ---------------------------------------------------------------------

 SCF Done:  E(RB3LYP) =  -1125.75681250     A.U. after    1 cycles

 The electronic state is 1-A.
 Alpha  occ. eigenvalues --  -88.89979 -14.34085 -14.32326 -10.25705 -10.23119
 Alpha  occ. eigenvalues --  -10.22521 -10.22154 -10.21902 -10.21080 -10.20975
 Alpha  occ. eigenvalues --  -10.20547 -10.20230 -10.20111 -10.19893 -10.19575
 Alpha  occ. eigenvalues --  -10.19539 -10.19500 -10.19411 -10.18724  -7.96172
 Alpha  occ. eigenvalues --   -5.92620  -5.92269  -5.91812  -0.94788  -0.94260
 Alpha  occ. eigenvalues --   -0.84102  -0.83137  -0.81586  -0.80041  -0.78672
 Alpha  occ. eigenvalues --   -0.75101  -0.73872  -0.70260  -0.66421  -0.63155
 Alpha  occ. eigenvalues --   -0.61394  -0.60151  -0.57013  -0.56773  -0.55596
 Alpha  occ. eigenvalues --   -0.54497  -0.51870  -0.49887  -0.49485  -0.48632
 Alpha  occ. eigenvalues --   -0.47289  -0.46493  -0.44767  -0.42544  -0.42315
 Alpha  occ. eigenvalues --   -0.41781  -0.40389  -0.39996  -0.39500  -0.39217
 Alpha  occ. eigenvalues --   -0.37876  -0.36945  -0.36200  -0.35689  -0.35135
 Alpha  occ. eigenvalues --   -0.34033  -0.31937  -0.31395  -0.29018  -0.28236
 Alpha  occ. eigenvalues --   -0.26889  -0.25341  -0.24442  -0.22376  -0.19228
 Alpha virt. eigenvalues --   -0.07530  -0.05692  -0.02357  -0.01862   0.01971
 Alpha virt. eigenvalues --    0.02763   0.04923   0.05661   0.08421   0.08899
 Alpha virt. eigenvalues --    0.09567   0.10066   0.10464   0.11874   0.13532

 Mulliken charges:
               1
     1  C   -0.099956
     2  C   -0.080120
     3  C   -0.087044
     4  C   -0.193252
     5  C    0.195063
     6  C   -0.124365
     7  C   -0.132142
     8  C   -0.005363
     9  N   -0.327068
    10  C    0.228869
    11  C   -0.194415
    12  C   -0.060333
    13  C   -0.113516
    14  C   -0.009015
    15  N   -0.173846
    16  C   -0.013393
    17  S   -0.073035
    18  C   -0.139287
    19  C   -0.082803
    20  H    0.126675
    21  H    0.086403
    22  H    0.106476
    23  H    0.087377
    24  H    0.102346
    25  H    0.102779
    26  H    0.109994
    27  H    0.109070
    28  H    0.093728
    29  H    0.108203
    30  H    0.089832
    31  H    0.127310
    32  H    0.127373
    33  H    0.107456
 Sum of Mulliken charges =  -0.00000

 Dipole moment (field-independent basis, Debye):
    X=             -0.5900    Y=              3.8150    Z=              1.8028  Tot=              4.2606
 Quadrupole moment (field-independent basis, Debye-Ang):
   XX=           -113.8852   YY=           -116.3752   ZZ=           -116.3882
   XY=              0.0178   XZ=              1.4415   YZ=              2.9271

  Exact polarizability: 464.450   3.629 189.854   0.342  19.345 114.202
 Approx polarizability: 812.088  10.454 331.597   6.723  42.625 213.593

                      1                      2                      3
                      A                      A                      A
 Frequencies --     49.1454                72.8989                88.9996
 Red. masses --      6.2853                 5.1148                 4.8940
 Frc consts  --      0.0089                 0.0160                 0.0228
 IR Inten    --      0.1514                 0.2586                 0.3359

                      4                      5                      6
                      A                      A                      A
 Frequencies --    110.4994               132.7171               135.2790
 Red. masses --      6.9981                 5.3739                 4.4890
 Frc consts  --      0.0503                 0.0558                 0.0484
 IR Inten    --      0.9576                 1.7145                 1.1141

                      7                      8                      9
                      A                      A                      A
 Frequencies --    165.0092               189.3899               201.5940
 Red. masses --      2.3604                 2.7555                 3.2244
 Frc consts  --      0.0379                 0.0582                 0.0772
 IR Inten    --      4.4120                 6.4346                 0.6468

                     10                     11                     12
                      A                      A                      A
 Frequencies --    220.2621               244.6205               268.2100
 Red. masses --      4.0551                 3.3032                 3.7130
 Frc consts  --      0.1159                 0.1165                 0.1574
 IR Inten    --      1.8715                 0.7660                 0.0362

                     13                     14                     15
                      A                      A                      A
 Frequencies --    282.6895               296.2234               302.5862
 Red. masses --      2.9506                 4.4548                 4.3722
 Frc consts  --      0.1389                 0.2303                 0.2359
 IR Inten    --      9.0684                 4.8806                 1.2032

                     16                     17                     18
                      A                      A                      A
 Frequencies --    342.7462               349.0728               381.8136
 Red. masses --      3.4786                 3.5887                 4.3846
 Frc consts  --      0.2408                 0.2576                 0.3766
 IR Inten    --      0.6137                 0.2136                 2.0594

                     19                     20                     21
                      A                      A                      A
 Frequencies --    405.8736               428.5786               475.8214
 Red. masses --      4.4287                 5.6558                 4.2569
 Frc consts  --      0.4298                 0.6121                 0.5678
 IR Inten    --      9.5745                12.9049                 0.9661

                     22                     23                     24
                      A                      A                      A
 Frequencies --    489.3486               514.3045               528.6395
 Red. masses --      3.3568                 3.8782                 4.2816
 Frc consts  --      0.4736                 0.6044                 0.7050
 IR Inten    --      1.5035                 2.4095                 1.8402

                     25                     26                     27
                      A                      A                      A
 Frequencies --    558.7431               598.2915               618.1464
 Red. masses --      4.0987                 4.2608                 6.3932
 Frc consts  --      0.7539                 0.8986                 1.4393
 IR Inten    --      3.1571                 5.6311                 2.6686

                     28                     29                     30
                      A                      A                      A
 Frequencies --    628.8938               663.6847               724.8610
 Red. masses --      5.9373                 4.3950                 2.9302
 Frc consts  --      1.3836                 1.1406                 0.9071
 IR Inten    --      4.0460                 5.6459                37.8431

                     31                     32                     33
                      A                      A                      A
 Frequencies --    751.0563               764.6043               801.6061
 Red. masses --      1.6514                 3.7687                 1.8123
 Frc consts  --      0.5488                 1.2981                 0.6861
 IR Inten    --     23.5606                 8.9638                12.7699

                     34                     35                     36
                      A                      A                      A
 Frequencies --    824.8055               851.0705               865.5444
 Red. masses --      1.7670                 2.2140                 3.5041
 Frc consts  --      0.7083                 0.9449                 1.5467
 IR Inten    --     10.6971                19.4306                15.3495

                     37                     38                     39
                      A                      A                      A
 Frequencies --    877.7005               890.9509               910.4162
 Red. masses --      1.9942                 2.0934                 4.6767
 Frc consts  --      0.9051                 0.9791                 2.2839
 IR Inten    --     12.2224                 7.0634                 6.5294

                     40                     41                     42
                      A                      A                      A
 Frequencies --    922.0833               940.3550               956.0540
 Red. masses --      2.0762                 1.5230                 1.2887
 Frc consts  --      1.0400                 0.7935                 0.6940
 IR Inten    --     12.5273                29.5214                 4.1589

                     43                     44                     45
                      A                      A                      A
 Frequencies --    969.0341               974.9551               989.0174
 Red. masses --      1.4098                 1.2245                 1.2439
 Frc consts  --      0.7800                 0.6857                 0.7169
 IR Inten    --      1.0411                 7.6528                 0.1955

                     46                     47                     48
                      A                      A                      A
 Frequencies --    994.2761              1034.8330              1050.7312
 Red. masses --      1.2227                 1.1229                 1.1033
 Frc consts  --      0.7122                 0.7085                 0.7177
 IR Inten    --      0.1456                80.6996                59.9773

                     49                     50                     51
                      A                      A                      A
 Frequencies --   1079.8220              1092.2103              1126.5616
 Red. masses --      2.7900                 2.4683                 2.1917
 Frc consts  --      1.9167                 1.7348                 1.6388
 IR Inten    --      0.1070                 9.1286                 4.7402

                     52                     53                     54
                      A                      A                      A
 Frequencies --   1144.1887              1162.9818              1172.1686
 Red. masses --      3.4078                 2.6635                 2.4948
 Frc consts  --      2.6286                 2.1225                 2.0196
 IR Inten    --      8.6876                 4.1878                 5.6778

                     55                     56                     57
                      A                      A                      A
 Frequencies --   1207.5860              1218.0918              1237.8307
 Red. masses --      1.5628                 1.6368                 1.7442
 Frc consts  --      1.3427                 1.4309                 1.5746
 IR Inten    --      1.8666                 0.6837                 2.5963

                     58                     59                     60
                      A                      A                      A
 Frequencies --   1238.0434              1263.9706              1273.2011
 Red. masses --      1.4737                 1.4647                 1.6269
 Frc consts  --      1.3309                 1.3787                 1.5538
 IR Inten    --      1.1560                 0.8678                 0.9543

                     61                     62                     63
                      A                      A                      A
 Frequencies --   1290.5508              1320.0029              1324.3986
 Red. masses --      3.0827                 1.5950                 1.5303
 Frc consts  --      3.0250                 1.6374                 1.5815
 IR Inten    --      4.4611                 1.8033                 3.4887

                     64                     65                     66
                      A                      A                      A
 Frequencies --   1326.4514              1338.2460              1343.4049
 Red. masses --      1.4801                 1.2281                 1.2433
 Frc consts  --      1.5344                 1.2958                 1.3220
 IR Inten    --      4.9300                10.6273                 6.9140

                     67                     68                     69
                      A                      A                      A
 Frequencies --   1350.2621              1377.6158              1384.7441
 Red. masses --      1.3579                 1.3961                 1.4438
 Frc consts  --      1.4586                 1.5610                 1.6312
 IR Inten    --      8.6658                 1.8740                 9.7820

                     70                     71                     72
                      A                      A                      A
 Frequencies --   1457.3350              1470.1396              1574.6209
 Red. masses --      2.9832                 2.0956                 5.1505
 Frc consts  --      3.7329                 2.6685                 7.5240
 IR Inten    --     88.0478                 3.0319                16.8885

                     73                     74                     75
                      A                      A                      A
 Frequencies --   1590.0644              1597.2256              1613.8395
 Red. masses --      6.3398                 7.8973                 5.7443
 Frc consts  --      9.4440                11.8703                 8.8148
 IR Inten    --      4.1703               157.8758                16.3842

                     76                     77                     78
                      A                      A                      A
 Frequencies --   1652.3536              1653.8280              1665.1868
 Red. masses --      5.7122                 4.9471                 5.3107
 Frc consts  --      9.1887                 7.9723                 8.6762
 IR Inten    --      7.1244                 3.7881                 1.0835

                     79                     80                     81
                      A                      A                      A
 Frequencies --   1681.3487              3041.9351              3064.3673
 Red. masses --      5.7021                 1.0872                 1.0864
 Frc consts  --      9.4974                 5.9273                 6.0109
 IR Inten    --      8.7435                13.5907                27.9195

                     82                     83                     84
                      A                      A                      A
 Frequencies --   3115.9156              3130.1349              3133.0382
 Red. masses --      1.0863                 1.0877                 1.0858
 Frc consts  --      6.2140                 6.2791                 6.2797
 IR Inten    --     10.8963                 7.7588                17.5504

                     85                     86                     87
                      A                      A                      A
 Frequencies --   3144.5695              3152.2051              3152.6262
 Red. masses --      1.0896                 1.0859                 1.0881
 Frc consts  --      6.3482                 6.3574                 6.3718
 IR Inten    --      2.8066                10.1808                25.4444

                     88                     89                     90
                      A                      A                      A
 Frequencies --   3167.7846              3169.1885              3173.6513
 Red. masses --      1.0885                 1.0865                 1.0891
 Frc consts  --      6.4355                 6.4295                 6.4631
 IR Inten    --     11.2742                 6.6201                 8.1578

                     91                     92                     93
                      A                      A                      A
 Frequencies --   3191.8619              3193.0730              3199.2376
 Red. masses --      1.0874                 1.0920                 1.0957
 Frc consts  --      6.5274                 6.5597                 6.6076
 IR Inten    --      6.3542                10.7043                28.5438

 - Thermochemistry -
 -------------------
 Temperature   298.150 Kelvin.  Pressure   1.00000 Atm.
 Atom     1 has atomic number  6 and mass  12.00000

 Molecular mass:   266.08777 amu.
 Principal axes and moments of inertia in atomic units:
                           1         2         3
     Eigenvalues --  2123.89058********************
           X            1.00000   0.00277   0.00129
           Y           -0.00279   0.99987   0.01559
           Z           -0.00125  -0.01560   0.99988
 This molecule is an asymmetric top.
 Rotational symmetry number  1.
 Warning -- assumption of classical behavior for rotation
           may cause significant error
 Rotational temperatures (Kelvin)      0.04078     0.00790     0.00679
 Rotational constants (GHZ):           0.84973     0.16458     0.14150
 Zero-point vibrational energy     676463.7 (Joules/Mol)
                                  161.67871 (Kcal/Mol)
 Warning -- explicit consideration of  27 degrees of freedom as
           vibrations may cause significant error
 Vibrational temperatures:     70.71   104.89   128.05   158.98   190.95
          (Kelvin)            194.64   237.41   272.49   290.05   316.91
                              351.95   385.89   406.73   426.20   435.35
                              493.14   502.24   549.34   583.96   616.63
                              684.60   704.06   739.97   760.59   803.91
                              860.81   889.37   904.84   954.89  1042.91
                             1080.60  1100.09  1153.33  1186.71  1224.50
                             1245.33  1262.82  1281.88  1309.89  1326.67
                             1352.96  1375.55  1394.22  1402.74  1422.98
                             1430.54  1488.89  1511.77  1553.62  1571.45
                             1620.87  1646.23  1673.27  1686.49  1737.45
                             1752.56  1780.96  1781.27  1818.57  1831.85
                             1856.81  1899.19  1905.51  1908.47  1925.44
                             1932.86  1942.73  1982.08  1992.34  2096.78
                             2115.20  2265.53  2287.75  2298.05  2321.96
                             2377.37  2379.49  2395.83  2419.09  4376.67
                             4408.94  4483.11  4503.57  4507.74  4524.33
                             4535.32  4535.93  4557.74  4559.76  4566.18
                             4592.38  4594.12  4602.99

 Zero-point correction=                           0.257651 (Hartree/Particle)
 Thermal correction to Energy=                    0.274181
 Thermal correction to Enthalpy=                  0.275125
 Thermal correction to Gibbs Free Energy=         0.214059
 Sum of electronic and zero-point Energies=          -1125.499161
 Sum of electronic and thermal Energies=             -1125.482632
 Sum of electronic and thermal Enthalpies=           -1125.481688
 Sum of electronic and thermal Free Energies=        -1125.542753

                     E (Thermal)             CV                S
                      KCal/Mol        Cal/Mol-Kelvin    Cal/Mol-Kelvin
 Total                  172.051             65.224            128.524
 Electronic               0.000              0.000              0.000
 Translational            0.889              2.981             42.635
 Rotational               0.889              2.981             34.051
 Vibrational            170.273             59.262             51.837
 Vibration     1          0.595              1.978              4.851
 Vibration     2          0.599              1.967              4.074
 Vibration     3          0.602              1.957              3.682
 Vibration     4          0.606              1.941              3.260
 Vibration     5          0.613              1.921              2.906
 Vibration     6          0.613              1.918              2.870
 Vibration     7          0.623              1.885              2.492
 Vibration     8          0.633              1.854              2.234
 Vibration     9          0.638              1.838              2.118
 Vibration    10          0.647              1.810              1.957
 Vibration    11          0.660              1.772              1.769
 Vibration    12          0.673              1.732              1.608
 Vibration    13          0.682              1.706              1.517
 Vibration    14          0.690              1.681              1.438
 Vibration    15          0.694              1.669              1.403
 Vibration    16          0.722              1.590              1.199
 Vibration    17          0.726              1.577              1.170
 Vibration    18          0.751              1.509              1.032
 Vibration    19          0.771              1.457              0.941
 Vibration    20          0.790              1.408              0.863
 Vibration    21          0.832              1.304              0.721
 Vibration    22          0.845              1.274              0.685
 Vibration    23          0.869              1.218              0.623
 Vibration    24          0.884              1.187              0.590
 Vibration    25          0.914              1.121              0.526
 Vibration    26          0.956              1.035              0.453
 Vibration    27          0.978              0.994              0.419

 Optimization completed.
    -- Stationary point found.
 Normal termination of Gaussian 16 at Tue May 16 14:22:54 2023.
