 Gaussian 16, Revision A.03,
 Gaussian 16:  ES64L-G16RevA.03 25-Dec-2016

 -----------------------------
 # opt freq b3lyp/6-31g(2df,p)
 -----------------------------

 -------------------
 Title Card Required
 -------------------
 Symbolic Z-matrix:
 Charge =  0 Multiplicity = 1

 SCF Done:  E(RB3LYP) =  -648.907170355     A.U. after   32 cycles
 SCF Done:  E(RB3LYP) =  -648.918393942     A.U. after   25 cycles
 SCF Done:  E(RB3LYP) =  -649.115955356     A.U. after   21 cycles
 SCF Done:  E(RB3LYP) =  -649.219618413     A.U. after   20 cycles
 SCF Done:  E(RB3LYP) =  -649.416645286     A.U. after   18 cycles
 SCF Done:  E(RB3LYP) =  -649.425657855     A.U. after   23 cycles
 SCF Done:  E(RB3LYP) =  -649.565080889     A.U. after   19 cycles
 SCF Done:  E(RB3LYP) =  -649.564658285     A.U. after   20 cycles
 SCF Done:  E(RB3LYP) =  -649.644271968     A.U. after   18 cycles
 SCF Done:  E(RB3LYP) =  -649.708490548     A.U. after   18 cycles
 SCF Done:  E(RB3LYP) =  -650.105277398     A.U. after   10 cycles
 SCF Done:  E(RB3LYP) =  -650.105291926     A.U. after   10 cycles
 SCF Done:  E(RB3LYP) =  -650.105301321     A.U. after    9 cycles
 SCF Done:  E(RB3LYP) =  -650.105304182     A.U. after    9 cycles
 SCF Done:  E(RB3LYP) =  -650.105305378     A.U. after    8 cycles
 SCF Done:  E(RB3LYP) =  -650.105305998     A.U. after    8 cycles
 SCF Done:  E(RB3LYP) =  -650.105306185     A.U. after    7 cycles
 SCF Done:  E(RB3LYP) =  -650.105306313     A.U. after    7 cycles
 SCF Done:  E(RB3LYP) =  -650.105306352     A.U. after    7 cycles
 Optimization completed.
    -- Stationary point found.
 Normal termination of Gaussian 16 at Wed May 17 07:54:01 2023.

 ----------------------------------------------------------------------
 #N Geom=AllCheck Guess=TCheck SCRF=Check GenChk RB3LYP/6-31G(2df,p) Fr
 eq
 ----------------------------------------------------------------------

 Structure from the checkpoint file:  "C1dCCdCNdNCdc2ccccc2dCCdC1.chk"
 -------------------
 Title Card Required
 -------------------
 Charge =  0 Multiplicity = 1

                         Standard orientation:
 ---------------------------------------------------------------------
 Center     Atomic      Atomic             Coordinates (Angstroms)
 Number     Number       Type             X           Y           Z
 ---------------------------------------------------------------------
      1          6           0       -6.271411   -0.094514   -0.015154
      2          6           0       -4.765360   -0.020911   -0.078389
      3          6           0       -3.582247   -0.738667    0.231793
      4          6           0       -2.330687   -0.244188    0.002037
      5          7           0       -1.214632   -0.975015    0.232414
      6          7           0       -0.035194   -0.341637    0.165201
      7          6           0        1.068620   -1.119314    0.028963
      8          6           0        2.361907   -0.594520   -0.022250
      9          6           0        3.504995   -1.428050   -0.172522
     10          6           0        4.759110   -0.874561   -0.235732
     11          6           0        4.941311    0.526302   -0.151013
     12          6           0        3.853368    1.356435   -0.004367
     13          6           0        2.550261    0.821199    0.060549
     14          6           0        1.380187    1.602580    0.227145
     15          6           0        0.145246    1.038050    0.285473
     16          6           0       -5.415405    1.015924   -0.540632
     17          1           0       -6.810618   -0.749651   -0.706998
     18          1           0       -5.408701    1.991009   -0.993990
     19          1           0       -3.677327   -1.726912    0.669667
     20          1           0       -2.258149    0.751920   -0.440240
     21          1           0        0.852213   -2.175571   -0.046292
     22          1           0        3.368583   -2.502460   -0.237401
     23          1           0        5.625564   -1.517159   -0.351184
     24          1           0        5.941721    0.941031   -0.201915
     25          1           0        3.982861    2.432154    0.063314
     26          1           0        1.459075    2.678895    0.338680
     27          1           0       -0.747336    1.609198    0.477964
     28          1           0       -6.778476    0.009522    0.949665
 ---------------------------------------------------------------------

 SCF Done:  E(RB3LYP) =  -650.105306352     A.U. after    1 cycles

 The electronic state is 1-A.
 Alpha  occ. eigenvalues --  -14.46201 -14.33481 -10.24640 -10.23709 -10.22267
 Alpha  occ. eigenvalues --  -10.22252 -10.21795 -10.20817 -10.20772 -10.20663
 Alpha  occ. eigenvalues --  -10.20558 -10.20448 -10.17661 -10.16799 -10.16448
 Alpha  occ. eigenvalues --  -10.16372  -1.05748  -0.89923  -0.85885  -0.84321
 Alpha  occ. eigenvalues --   -0.81531  -0.78627  -0.76232  -0.73127  -0.67698
 Alpha  occ. eigenvalues --   -0.65814  -0.62714  -0.59994  -0.56881  -0.55038
 Alpha  occ. eigenvalues --   -0.54702  -0.52563  -0.50760  -0.49541  -0.47653
 Alpha  occ. eigenvalues --   -0.47493  -0.46637  -0.44875  -0.44264  -0.43633
 Alpha  occ. eigenvalues --   -0.41255  -0.41011  -0.39925  -0.38972  -0.37155
 Alpha  occ. eigenvalues --   -0.35657  -0.33182  -0.31640  -0.30872  -0.29153
 Alpha  occ. eigenvalues --   -0.27195  -0.26603  -0.25364  -0.23149  -0.16078
 Alpha virt. eigenvalues --   -0.07403  -0.04983   0.00646   0.01458   0.06398
 Alpha virt. eigenvalues --    0.08160   0.09569   0.10804   0.11969   0.12543
 Alpha virt. eigenvalues --    0.14393   0.14867   0.15092   0.15403   0.16312

 Mulliken charges:
               1
     1  C   -0.364396
     2  C    0.387578
     3  C   -0.324453
     4  C    0.060728
     5  N   -0.322540
     6  N   -0.013248
     7  C   -0.024271
     8  C    0.154562
     9  C   -0.191650
    10  C   -0.109170
    11  C   -0.125633
    12  C   -0.185328
    13  C    0.228305
    14  C   -0.240434
    15  C    0.020495
    16  C   -0.269058
    17  H    0.084008
    18  H    0.117310
    19  H    0.091433
    20  H    0.087978
    21  H    0.145666
    22  H    0.107298
    23  H    0.109128
    24  H    0.107248
    25  H    0.102872
    26  H    0.121942
    27  H    0.160482
    28  H    0.083146
 Sum of Mulliken charges =  -0.00000

 Dipole moment (field-independent basis, Debye):
    X=              6.0290    Y=              1.8545    Z=             -0.1742  Tot=              6.3102
 Quadrupole moment (field-independent basis, Debye-Ang):
   XX=            -99.7479   YY=            -83.5884   ZZ=            -95.8246
   XY=             -2.8610   XZ=             -0.4434   YZ=              0.5364

  Exact polarizability: 541.274  -4.700 154.226  -3.656  -2.887  73.510
 Approx polarizability: 981.614 -15.784 286.843 -10.894  -8.102 123.859

                      1                      2                      3
                      A                      A                      A
 Frequencies --     34.9854                47.8487                64.9939
 Red. masses --      5.1778                 3.0165                 3.6283
 Frc consts  --      0.0037                 0.0041                 0.0090
 IR Inten    --      0.4783                 0.1403                 0.3381

                      4                      5                      6
                      A                      A                      A
 Frequencies --    102.8449               150.2038               186.7893
 Red. masses --      4.3660                 3.7407                 3.4922
 Frc consts  --      0.0272                 0.0497                 0.0718
 IR Inten    --      0.8386                 0.0647                 2.3066

                      7                      8                      9
                      A                      A                      A
 Frequencies --    201.0729               238.4709               278.4560
 Red. masses --      5.1993                 3.3958                 3.8950
 Frc consts  --      0.1239                 0.1138                 0.1779
 IR Inten    --      3.3943                 4.8437                 9.0482

                     10                     11                     12
                      A                      A                      A
 Frequencies --    301.8338               332.2554               408.3944
 Red. masses --      4.6019                 4.1095                 3.3212
 Frc consts  --      0.2470                 0.2673                 0.3264
 IR Inten    --      3.0049                 9.0698                 2.3706

                     13                     14                     15
                      A                      A                      A
 Frequencies --    415.0062               450.8216               474.1598
 Red. masses --      2.5010                 4.0775                 2.7219
 Frc consts  --      0.2538                 0.4883                 0.3606
 IR Inten    --     10.9209                20.1477                 8.5381

                     16                     17                     18
                      A                      A                      A
 Frequencies --    486.8208               530.0687               532.1817
 Red. masses --      6.2843                 3.8592                 6.2623
 Frc consts  --      0.8775                 0.6389                 1.0450
 IR Inten    --      3.3300                 3.7797                 3.4176

                     19                     20                     21
                      A                      A                      A
 Frequencies --    611.2074               639.0978               653.2351
 Red. masses --      4.7430                 5.6923                 3.3814
 Frc consts  --      1.0439                 1.3698                 0.8501
 IR Inten    --     13.4211                 2.8403                 3.9164

                     22                     23                     24
                      A                      A                      A
 Frequencies --    678.4237               746.5361               764.9139
 Red. masses --      1.6889                 5.0156                 1.3303
 Frc consts  --      0.4580                 1.6469                 0.4586
 IR Inten    --     17.9523                 7.7837                19.4878

                     25                     26                     27
                      A                      A                      A
 Frequencies --    775.5627               787.5581               820.6580
 Red. masses --      2.8454                 4.6543                 1.4940
 Frc consts  --      1.0084                 1.7009                 0.5928
 IR Inten    --      2.2851                 4.3698                29.2789

                     28                     29                     30
                      A                      A                      A
 Frequencies --    830.5970               855.3305               864.8517
 Red. masses --      2.9982                 1.6927                 1.4537
 Frc consts  --      1.2187                 0.7296                 0.6406
 IR Inten    --      3.3595                28.9952                11.6538

                     31                     32                     33
                      A                      A                      A
 Frequencies --    893.7612               919.0579               940.9400
 Red. masses --      1.6749                 4.3112                 1.2867
 Frc consts  --      0.7883                 2.1455                 0.6712
 IR Inten    --      7.3850                 3.5971                 0.8242

                     34                     35                     36
                      A                      A                      A
 Frequencies --    955.7172               973.7027               981.7920
 Red. masses --      1.3403                 2.1651                 1.2755
 Frc consts  --      0.7213                 1.2094                 0.7244
 IR Inten    --      1.1829                28.0220                 0.7244

                     37                     38                     39
                      A                      A                      A
 Frequencies --    983.4807              1009.4887              1010.7072
 Red. masses --      1.4789                 1.1394                 1.7658
 Frc consts  --      0.8428                 0.6841                 1.0628
 IR Inten    --      9.9099                 1.2352                14.8814

                     40                     41                     42
                      A                      A                      A
 Frequencies --   1039.3870              1042.1477              1095.0249
 Red. masses --      2.2747                 1.5866                 2.5199
 Frc consts  --      1.4479                 1.0152                 1.7802
 IR Inten    --      2.8017                24.9408                82.3688

                     43                     44                     45
                      A                      A                      A
 Frequencies --   1100.1903              1132.1605              1154.2692
 Red. masses --      1.3012                 2.4619                 2.8518
 Frc consts  --      0.9279                 1.8592                 2.2386
 IR Inten    --      2.2185               137.8827                 7.0751

                     46                     47                     48
                      A                      A                      A
 Frequencies --   1174.8630              1180.0738              1194.5171
 Red. masses --      1.4587                 1.2678                 1.4952
 Frc consts  --      1.1863                 1.0402                 1.2570
 IR Inten    --     63.7588                58.1163                 4.5835

                     49                     50                     51
                      A                      A                      A
 Frequencies --   1241.1797              1263.2134              1289.1500
 Red. masses --      2.4807                 1.8435                 1.6900
 Frc consts  --      2.2516                 1.7332                 1.6548
 IR Inten    --      8.0554                49.8515                 6.2825

                     52                     53                     54
                      A                      A                      A
 Frequencies --   1296.5608              1316.6932              1352.5211
 Red. masses --      1.6748                 1.6339                 2.4721
 Frc consts  --      1.6588                 1.6690                 2.6644
 IR Inten    --     15.8394               270.6735                 7.2573

                     55                     56                     57
                      A                      A                      A
 Frequencies --   1383.0746              1405.7551              1419.9816
 Red. masses --      4.3266                 4.8527                 1.7184
 Frc consts  --      4.8763                 5.6500                 2.0415
 IR Inten    --    334.5378                96.8917                11.5144

                     58                     59                     60
                      A                      A                      A
 Frequencies --   1485.6874              1498.3988              1522.9342
 Red. masses --      2.1079                 3.6401                 3.0089
 Frc consts  --      2.7413                 4.8152                 4.1118
 IR Inten    --    118.0725                 2.0441                 4.9436

                     61                     62                     63
                      A                      A                      A
 Frequencies --   1523.3013              1578.5111              1615.3691
 Red. masses --      1.1444                 5.5486                 4.2246
 Frc consts  --      1.5646                 8.1457                 6.4950
 IR Inten    --     23.5154               156.4357               237.2841

                     64                     65                     66
                      A                      A                      A
 Frequencies --   1644.7118              1675.1768              1802.0642
 Red. masses --      5.2752                 6.0575                 7.3677
 Frc consts  --      8.4076                10.0153                14.0968
 IR Inten    --     18.7131               388.7958                15.3948

                     67                     68                     69
                      A                      A                      A
 Frequencies --   3010.5587              3064.1055              3087.8790
 Red. masses --      1.0472                 1.1150                 1.0857
 Frc consts  --      5.5918                 6.1676                 6.0995
 IR Inten    --    258.2111                63.2804                30.3524

                     70                     71                     72
                      A                      A                      A
 Frequencies --   3172.5098              3177.6157              3180.2247
 Red. masses --      1.0855                 1.0872                 1.0874
 Frc consts  --      6.4369                 6.4677                 6.4799
 IR Inten    --      8.3360                 0.9337                13.0633

                     73                     74                     75
                      A                      A                      A
 Frequencies --   3188.1851              3190.7865              3202.8318
 Red. masses --      1.0901                 1.0933                 1.0971
 Frc consts  --      6.5284                 6.5581                 6.6305
 IR Inten    --      3.0002                19.8542                21.1752

                     76                     77                     78
                      A                      A                      A
 Frequencies --   3238.2391              3276.4431              3283.6994
 Red. masses --      1.0908                 1.0922                 1.1114
 Frc consts  --      6.7392                 6.9083                 7.0604
 IR Inten    --      3.5733                 0.7320                10.1178

 - Thermochemistry -
 -------------------
 Temperature   298.150 Kelvin.  Pressure   1.00000 Atm.
 Atom     1 has atomic number  6 and mass  12.00000

 Molecular mass:   208.10005 amu.
 Principal axes and moments of inertia in atomic units:
                           1         2         3
     Eigenvalues --   767.948389498.81562**********
           X            1.00000  -0.00079  -0.00050
           Y            0.00079   1.00000  -0.00032
           Z            0.00050   0.00032   1.00000
 This molecule is an asymmetric top.
 Rotational symmetry number  1.
 Warning -- assumption of classical behavior for rotation
           may cause significant error
 Rotational temperatures (Kelvin)      0.11279     0.00912     0.00851
 Rotational constants (GHZ):           2.35008     0.19000     0.17726
 Zero-point vibrational energy     582783.7 (Joules/Mol)
                                  139.28864 (Kcal/Mol)
 Warning -- explicit consideration of  19 degrees of freedom as
           vibrations may cause significant error
 Vibrational temperatures:     50.34    68.84    93.51   147.97   216.11
          (Kelvin)            268.75   289.30   343.11   400.64   434.27
                              478.04   587.59   597.10   648.63   682.21
                              700.43   762.65   765.69   879.39   919.52
                              939.86   976.10  1074.10  1100.54  1115.86
                             1133.12  1180.74  1195.04  1230.63  1244.33
                             1285.92  1322.32  1353.80  1375.06  1400.94
                             1412.58  1415.01  1452.43  1454.18  1495.45
                             1499.42  1575.50  1582.93  1628.93  1660.74
                             1690.37  1697.86  1718.64  1785.78  1817.48
                             1854.80  1865.46  1894.43  1945.98  1989.94
                             2022.57  2043.04  2137.57  2155.86  2191.16
                             2191.69  2271.13  2324.16  2366.37  2410.21
                             2592.77  4331.52  4408.56  4442.77  4564.53
                             4571.88  4575.63  4587.09  4590.83  4608.16
                             4659.10  4714.07  4724.51

 Zero-point correction=                           0.221971 (Hartree/Particle)
 Thermal correction to Energy=                    0.235205
 Thermal correction to Enthalpy=                  0.236149
 Thermal correction to Gibbs Free Energy=         0.181053
 Sum of electronic and zero-point Energies=           -649.883336
 Sum of electronic and thermal Energies=              -649.870101
 Sum of electronic and thermal Enthalpies=            -649.869157
 Sum of electronic and thermal Free Energies=         -649.924254

                     E (Thermal)             CV                S
                      KCal/Mol        Cal/Mol-Kelvin    Cal/Mol-Kelvin
 Total                  147.593             52.215            115.960
 Electronic               0.000              0.000              0.000
 Translational            0.889              2.981             41.902
 Rotational               0.889              2.981             32.674
 Vibrational            145.816             46.253             41.384
 Vibration     1          0.594              1.982              5.525
 Vibration     2          0.595              1.978              4.904
 Vibration     3          0.597              1.971              4.300
 Vibration     4          0.605              1.947              3.400
 Vibration     5          0.618              1.902              2.670
 Vibration     6          0.632              1.858              2.259
 Vibration     7          0.638              1.838              2.123
 Vibration     8          0.656              1.782              1.814
 Vibration     9          0.679              1.713              1.543
 Vibration    10          0.694              1.670              1.407
 Vibration    11          0.714              1.611              1.249
 Vibration    12          0.773              1.452              0.932
 Vibration    13          0.778              1.438              0.909
 Vibration    14          0.810              1.359              0.793
 Vibration    15          0.831              1.307              0.726
 Vibration    16          0.843              1.279              0.692
 Vibration    17          0.885              1.183              0.587
 Vibration    18          0.887              1.179              0.582
 Vibration    19          0.970              1.008              0.431

 Optimization completed.
    -- Stationary point found.
 Normal termination of Gaussian 16 at Wed May 17 09:53:00 2023.
