 Gaussian 16, Revision A.03,
 Gaussian 16:  ES64L-G16RevA.03 25-Dec-2016

 -----------------------------
 # opt freq b3lyp/6-31g(2df,p)
 -----------------------------

 -------------------
 Title Card Required
 -------------------
 Symbolic Z-matrix:
 Charge =  0 Multiplicity = 1

 SCF Done:  E(RB3LYP) =  -630.322408174     A.U. after   20 cycles
 SCF Done:  E(RB3LYP) =  -630.393706737     A.U. after   16 cycles
 SCF Done:  E(RB3LYP) =  -630.457913415     A.U. after   16 cycles
 SCF Done:  E(RB3LYP) =  -630.499804487     A.U. after   15 cycles
 SCF Done:  E(RB3LYP) =  -630.522673937     A.U. after   15 cycles
 SCF Done:  E(RB3LYP) =  -630.530353632     A.U. after   14 cycles
 SCF Done:  E(RB3LYP) =  -630.534841944     A.U. after   14 cycles
 SCF Done:  E(RB3LYP) =  -630.536048372     A.U. after   13 cycles
 SCF Done:  E(RB3LYP) =  -630.536320314     A.U. after   12 cycles
 SCF Done:  E(RB3LYP) =  -630.536417333     A.U. after   12 cycles
 SCF Done:  E(RB3LYP) =  -630.536477036     A.U. after   12 cycles
 SCF Done:  E(RB3LYP) =  -630.536514605     A.U. after   12 cycles
 SCF Done:  E(RB3LYP) =  -630.536527267     A.U. after   11 cycles
 SCF Done:  E(RB3LYP) =  -630.536537029     A.U. after   11 cycles
 SCF Done:  E(RB3LYP) =  -630.536540270     A.U. after   10 cycles
 SCF Done:  E(RB3LYP) =  -630.536541637     A.U. after   10 cycles
 SCF Done:  E(RB3LYP) =  -630.536542172     A.U. after   10 cycles
 Optimization completed.
    -- Stationary point found.
 Normal termination of Gaussian 16 at Wed May 17 21:16:13 2023.

 ----------------------------------------------------------------------
 #N Geom=AllCheck Guess=TCheck SCRF=Check GenChk RB3LYP/6-31G(2df,p) Fr
 eq
 ----------------------------------------------------------------------

 Structure from the checkpoint file:  "C1dCONdc2ccccc2dCC2dCC2dC1.chk"
 -------------------
 Title Card Required
 -------------------
 Charge =  0 Multiplicity = 1

                         Standard orientation:
 ---------------------------------------------------------------------
 Center     Atomic      Atomic             Coordinates (Angstroms)
 Number     Number       Type             X           Y           Z
 ---------------------------------------------------------------------
      1          6           0        2.904675   -1.375933   -0.346755
      2          6           0        1.619641   -1.457328    0.072894
      3          8           0        0.560112   -1.703766   -0.708494
      4          7           0       -0.595464   -1.871816    0.108290
      5          6           0       -1.324493   -0.788362    0.129080
      6          6           0       -2.643941   -1.063540    0.694524
      7          6           0       -3.697165   -0.248594    0.478142
      8          6           0       -3.517444    0.963991   -0.269974
      9          6           0       -2.273380    1.359721   -0.628674
     10          6           0       -1.058660    0.618711   -0.309946
     11          6           0        0.064511    1.452112   -0.239158
     12          6           0        1.430367    1.417363    0.118215
     13          6           0        2.447757    2.229977    0.479930
     14          6           0        2.769370    0.877072    0.356280
     15          6           0        3.574427   -0.200076    0.164925
     16          1           0        3.284757   -1.906119   -1.214594
     17          1           0        1.355527   -1.048305    1.041607
     18          1           0       -2.746410   -2.022174    1.188630
     19          1           0       -4.683106   -0.516470    0.842382
     20          1           0       -4.375595    1.582958   -0.507102
     21          1           0       -2.140889    2.314833   -1.126742
     22          1           0       -0.215124    2.486980   -0.436474
     23          1           0        2.781321    3.234526    0.695418
     24          1           0        4.652890   -0.104080    0.229896
 ---------------------------------------------------------------------

 SCF Done:  E(RB3LYP) =  -630.536542172     A.U. after    1 cycles

 The electronic state is 1-A.
 Alpha  occ. eigenvalues --  -19.19713 -14.37023 -10.24162 -10.23904 -10.23303
 Alpha  occ. eigenvalues --  -10.22939 -10.22888 -10.22206 -10.21879 -10.19652
 Alpha  occ. eigenvalues --  -10.19604 -10.19403 -10.19300 -10.18363 -10.17123
 Alpha  occ. eigenvalues --   -1.10047  -0.91940  -0.89607  -0.83891  -0.79787
 Alpha  occ. eigenvalues --   -0.78701  -0.73399  -0.69218  -0.67669  -0.60890
 Alpha  occ. eigenvalues --   -0.60357  -0.58611  -0.57752  -0.54670  -0.50599
 Alpha  occ. eigenvalues --   -0.49562  -0.49480  -0.46470  -0.44977  -0.44408
 Alpha  occ. eigenvalues --   -0.43496  -0.42227  -0.40664  -0.40247  -0.38751
 Alpha  occ. eigenvalues --   -0.37606  -0.35790  -0.35674  -0.33932  -0.31511
 Alpha  occ. eigenvalues --   -0.30556  -0.29921  -0.28858  -0.24940  -0.21068
 Alpha  occ. eigenvalues --   -0.17422
 Alpha virt. eigenvalues --   -0.10440  -0.01803   0.00216   0.01557   0.04665
 Alpha virt. eigenvalues --    0.07675   0.09197   0.09624   0.10681   0.11009
 Alpha virt. eigenvalues --    0.13288   0.14068   0.15730   0.16526   0.17902

 Mulliken charges:
               1
     1  C   -0.241147
     2  C    0.117025
     3  O   -0.198186
     4  N   -0.240345
     5  C    0.226431
     6  C   -0.121061
     7  C   -0.109749
     8  C   -0.125290
     9  C   -0.115545
    10  C    0.133334
    11  C   -0.247037
    12  C    0.277656
    13  C   -0.349646
    14  C    0.261962
    15  C   -0.282626
    16  H    0.106593
    17  H    0.113220
    18  H    0.121474
    19  H    0.105528
    20  H    0.102058
    21  H    0.105003
    22  H    0.103791
    23  H    0.161131
    24  H    0.095425
 Sum of Mulliken charges =  -0.00000

 Dipole moment (field-independent basis, Debye):
    X=             -0.4095    Y=              3.8829    Z=              0.5124  Tot=              3.9379
 Quadrupole moment (field-independent basis, Debye-Ang):
   XX=            -73.8302   YY=            -81.4213   ZZ=            -86.3569
   XY=              3.4009   XZ=             -0.6501   YZ=             -0.5689

  Exact polarizability: 317.049  -1.877 163.944   0.628  -3.288  74.920
 Approx polarizability: 678.366   8.084 350.981  10.135  -3.664 133.016

                      1                      2                      3
                      A                      A                      A
 Frequencies --     66.5670                76.0328               148.0084
 Red. masses --      4.1329                 5.0235                 5.5265
 Frc consts  --      0.0108                 0.0171                 0.0713
 IR Inten    --      9.2855                 0.9950                 1.1928

                      4                      5                      6
                      A                      A                      A
 Frequencies --    176.0051               218.3001               234.2033
 Red. masses --      5.8832                 4.8103                 4.2178
 Frc consts  --      0.1074                 0.1351                 0.1363
 IR Inten    --      4.2095                 4.8662                 6.7326

                      7                      8                      9
                      A                      A                      A
 Frequencies --    259.7311               308.0171               336.1167
 Red. masses --      3.3529                 3.5316                 4.3650
 Frc consts  --      0.1333                 0.1974                 0.2905
 IR Inten    --      7.4304                25.1234                45.6080

                     10                     11                     12
                      A                      A                      A
 Frequencies --    370.7279               374.4362               423.3045
 Red. masses --      5.2752                 3.6715                 3.8952
 Frc consts  --      0.4272                 0.3033                 0.4112
 IR Inten    --      6.4068                 9.3341                11.8824

                     13                     14                     15
                      A                      A                      A
 Frequencies --    467.8433               494.8042               538.9083
 Red. masses --      3.5347                 4.4583                 4.1092
 Frc consts  --      0.4558                 0.6431                 0.7031
 IR Inten    --     73.4234                 5.8434                 5.8739

                     16                     17                     18
                      A                      A                      A
 Frequencies --    566.5199               583.4675               616.3053
 Red. masses --      5.0580                 4.7598                 6.1692
 Frc consts  --      0.9564                 0.9547                 1.3806
 IR Inten    --     18.0736                21.5574                 2.6734

                     19                     20                     21
                      A                      A                      A
 Frequencies --    646.4327               662.9134               683.2144
 Red. masses --      5.1652                 4.0659                 4.2287
 Frc consts  --      1.2717                 1.0527                 1.1630
 IR Inten    --      2.9139                36.7215                12.9286

                     22                     23                     24
                      A                      A                      A
 Frequencies --    749.6832               755.3424               763.8336
 Red. masses --      1.9338                 2.0608                 1.7245
 Frc consts  --      0.6404                 0.6927                 0.5928
 IR Inten    --     11.9375                69.7110                56.7234

                     25                     26                     27
                      A                      A                      A
 Frequencies --    793.8348               795.2060               824.4569
 Red. masses --      2.2339                 2.0320                 1.6202
 Frc consts  --      0.8294                 0.7571                 0.6489
 IR Inten    --     12.2179                65.4497                11.0107

                     28                     29                     30
                      A                      A                      A
 Frequencies --    846.2929               890.6235               913.4130
 Red. masses --      1.8488                 1.6631                 3.9526
 Frc consts  --      0.7802                 0.7772                 1.9430
 IR Inten    --      2.0647                37.2715                21.7614

                     31                     32                     33
                      A                      A                      A
 Frequencies --    928.5455               949.9475               961.0102
 Red. masses --      1.8355                 1.7214                 2.9158
 Frc consts  --      0.9324                 0.9153                 1.5866
 IR Inten    --     56.8293                 9.7624                17.8598

                     34                     35                     36
                      A                      A                      A
 Frequencies --    964.0244               986.0623              1021.8713
 Red. masses --      1.6943                 1.3100                 2.5839
 Frc consts  --      0.9277                 0.7505                 1.5897
 IR Inten    --      5.2123                 1.5026                 0.6858

                     37                     38                     39
                      A                      A                      A
 Frequencies --   1053.0529              1106.7950              1140.9960
 Red. masses --      1.5983                 2.0965                 2.4691
 Frc consts  --      1.0443                 1.5132                 1.8939
 IR Inten    --      2.3926                 6.0118                10.3230

                     40                     41                     42
                      A                      A                      A
 Frequencies --   1157.4462              1186.0432              1203.5898
 Red. masses --      1.8210                 1.8189                 2.8272
 Frc consts  --      1.4374                 1.5075                 2.4131
 IR Inten    --      2.2597                22.6038                15.3512

                     43                     44                     45
                      A                      A                      A
 Frequencies --   1238.0471              1242.4880              1273.2363
 Red. masses --      1.6230                 3.5644                 1.5449
 Frc consts  --      1.4657                 3.2421                 1.4756
 IR Inten    --      2.5330                65.7356                 2.9956

                     46                     47                     48
                      A                      A                      A
 Frequencies --   1347.8533              1375.6409              1391.9144
 Red. masses --      2.2483                 1.9886                 1.6032
 Frc consts  --      2.4065                 2.2172                 1.8301
 IR Inten    --      4.3960               140.0977                 4.8748

                     49                     50                     51
                      A                      A                      A
 Frequencies --   1424.0830              1449.3454              1467.8922
 Red. masses --      1.6654                 2.0385                 1.7701
 Frc consts  --      1.9899                 2.5229                 2.2472
 IR Inten    --     87.9496                45.4220                39.2569

                     52                     53                     54
                      A                      A                      A
 Frequencies --   1498.1596              1552.8166              1583.9759
 Red. masses --      3.1449                 8.0462                 7.1879
 Frc consts  --      4.1589                11.4309                10.6255
 IR Inten    --      5.0077                 8.7439                 6.0516

                     55                     56                     57
                      A                      A                      A
 Frequencies --   1620.1066              1676.7292              1813.0994
 Red. masses --      4.7438                 5.5619                 8.8755
 Frc consts  --      7.3361                 9.2130                17.1904
 IR Inten    --      8.5850                 1.5971                63.0966

                     58                     59                     60
                      A                      A                      A
 Frequencies --   3109.4602              3166.8908              3169.8140
 Red. masses --      1.0830                 1.0884                 1.0852
 Frc consts  --      6.1697                 6.4314                 6.4244
 IR Inten    --      5.8564                12.1258                 2.2271

                     61                     62                     63
                      A                      A                      A
 Frequencies --   3173.5515              3180.1997              3183.1284
 Red. masses --      1.0876                 1.0913                 1.0876
 Frc consts  --      6.4536                 6.5029                 6.4928
 IR Inten    --      9.0700                31.1913                12.4655

                     64                     65                     66
                      A                      A                      A
 Frequencies --   3198.3831              3211.9503              3239.5288
 Red. masses --      1.0938                 1.0963                 1.1122
 Frc consts  --      6.5927                 6.6636                 6.8767
 IR Inten    --     16.2879                11.7261                 4.4573

 - Thermochemistry -
 -------------------
 Temperature   298.150 Kelvin.  Pressure   1.00000 Atm.
 Atom     1 has atomic number  6 and mass  12.00000

 Molecular mass:   195.06841 amu.
 Principal axes and moments of inertia in atomic units:
                           1         2         3
     Eigenvalues --  1405.654243967.723585104.78189
           X            0.99999  -0.00510  -0.00194
           Y            0.00508   0.99991  -0.01202
           Z            0.00200   0.01201   0.99993
 This molecule is an asymmetric top.
 Rotational symmetry number  1.
 Warning -- assumption of classical behavior for rotation
           may cause significant error
 Rotational temperatures (Kelvin)      0.06162     0.02183     0.01697
 Rotational constants (GHZ):           1.28392     0.45486     0.35354
 Zero-point vibrational energy     471521.4 (Joules/Mol)
                                  112.69632 (Kcal/Mol)
 Warning -- explicit consideration of  18 degrees of freedom as
           vibrations may cause significant error
 Vibrational temperatures:     95.78   109.39   212.95   253.23   314.09
          (Kelvin)            336.97   373.70   443.17   483.60   533.39
                              538.73   609.04   673.12   711.91   775.37
                              815.10   839.48   886.73   930.07   953.78
                              982.99  1078.63  1086.77  1098.99  1142.15
                             1144.12  1186.21  1217.63  1281.41  1314.20
                             1335.97  1366.76  1382.68  1387.02  1418.72
                             1470.24  1515.11  1592.43  1641.64  1665.31
                             1706.45  1731.70  1781.27  1787.66  1831.90
                             1939.26  1979.24  2002.65  2048.94  2085.28
                             2111.97  2155.52  2234.16  2278.99  2330.97
                             2412.44  2608.65  4473.82  4556.45  4560.66
                             4566.03  4575.60  4579.81  4601.76  4621.28
                             4660.96

 Zero-point correction=                           0.179593 (Hartree/Particle)
 Thermal correction to Energy=                    0.191240
 Thermal correction to Enthalpy=                  0.192184
 Thermal correction to Gibbs Free Energy=         0.142146
 Sum of electronic and zero-point Energies=           -630.356949
 Sum of electronic and thermal Energies=              -630.345302
 Sum of electronic and thermal Enthalpies=            -630.344358
 Sum of electronic and thermal Free Energies=         -630.394396

                     E (Thermal)             CV                S
                      KCal/Mol        Cal/Mol-Kelvin    Cal/Mol-Kelvin
 Total                  120.005             47.482            105.314
 Electronic               0.000              0.000              0.000
 Translational            0.889              2.981             41.710
 Rotational               0.889              2.981             31.721
 Vibrational            118.227             41.520             31.883
 Vibration     1          0.598              1.970              4.252
 Vibration     2          0.599              1.965              3.991
 Vibration     3          0.617              1.905              2.698
 Vibration     4          0.628              1.872              2.370
 Vibration     5          0.646              1.813              1.973
 Vibration     6          0.654              1.789              1.846
 Vibration     7          0.668              1.746              1.664
 Vibration     8          0.698              1.658              1.373
 Vibration     9          0.717              1.603              1.231
 Vibration    10          0.743              1.532              1.077
 Vibration    11          0.746              1.525              1.062
 Vibration    12          0.785              1.420              0.881
 Vibration    13          0.825              1.321              0.744
 Vibration    14          0.850              1.262              0.671
 Vibration    15          0.894              1.164              0.568
 Vibration    16          0.922              1.104              0.511
 Vibration    17          0.940              1.067              0.479
 Vibration    18          0.976              0.997              0.422

                           ! Non-Optimized Parameters !
 Normal termination of Gaussian 16 at Wed May 17 22:57:18 2023.
