 Gaussian 16, Revision A.03,
 Gaussian 16:  ES64L-G16RevA.03 25-Dec-2016

 -----------------------------
 # opt freq b3lyp/6-31g(2df,p)
 -----------------------------

 -------------------
 Title Card Required
 -------------------
 Symbolic Z-matrix:
 Charge =  0 Multiplicity = 1

 SCF Done:  E(RB3LYP) =  -578.321475709     A.U. after   21 cycles
 SCF Done:  E(RB3LYP) =  -578.385448795     A.U. after   17 cycles
 SCF Done:  E(RB3LYP) =  -578.453451503     A.U. after   19 cycles
 SCF Done:  E(RB3LYP) =  -578.497727430     A.U. after   18 cycles
 SCF Done:  E(RB3LYP) =  -578.551197209     A.U. after   19 cycles
 SCF Done:  E(RB3LYP) =  -578.589859625     A.U. after   19 cycles
 SCF Done:  E(RB3LYP) =  -578.617184595     A.U. after   17 cycles
 SCF Done:  E(RB3LYP) =  -578.642900682     A.U. after   16 cycles
 SCF Done:  E(RB3LYP) =  -578.674845864     A.U. after   17 cycles
 SCF Done:  E(RB3LYP) =  -578.682614495     A.U. after   15 cycles
 SCF Done:  E(RB3LYP) =  -578.699812913     A.U. after   16 cycles
 SCF Done:  E(RB3LYP) =  -578.703042324     A.U. after   15 cycles
 SCF Done:  E(RB3LYP) =  -578.704646793     A.U. after   15 cycles
 SCF Done:  E(RB3LYP) =  -578.704834117     A.U. after   14 cycles
 SCF Done:  E(RB3LYP) =  -578.705139273     A.U. after   12 cycles
 SCF Done:  E(RB3LYP) =  -578.705217716     A.U. after   11 cycles
 SCF Done:  E(RB3LYP) =  -578.705225468     A.U. after   10 cycles
 SCF Done:  E(RB3LYP) =  -578.705227930     A.U. after    8 cycles
 SCF Done:  E(RB3LYP) =  -578.705228529     A.U. after    9 cycles
 Optimization completed.
    -- Stationary point found.
 Normal termination of Gaussian 16 at Wed May 17 23:03:09 2023.

 ----------------------------------------------------------------------
 #N Geom=AllCheck Guess=TCheck SCRF=Check GenChk RB3LYP/6-31G(2df,p) Fr
 eq
 ----------------------------------------------------------------------

 Structure from the checkpoint file:  "C1dCCdc2ccc3cqc2CdC1rCCdCCd3.chk"
 -------------------
 Title Card Required
 -------------------
 Charge =  0 Multiplicity = 1

                         Standard orientation:
 ---------------------------------------------------------------------
 Center     Atomic      Atomic             Coordinates (Angstroms)
 Number     Number       Type             X           Y           Z
 ---------------------------------------------------------------------
      1          6           0        3.483836   -0.640733   -0.680654
      2          6           0        3.555852    0.585201   -0.106129
      3          6           0        2.469903    0.724677    0.882294
      4          6           0        1.169206    0.876571    0.421076
      5          6           0        0.572092    2.058462   -0.115113
      6          6           0       -0.777415    2.103199   -0.263008
      7          6           0       -1.609363    0.943257   -0.050285
      8          6           0       -0.964512   -0.333491    0.199328
      9          6           0        0.397996   -0.356906    0.399211
     10          6           0        1.211319   -1.564514    0.185847
     11          6           0        2.467387   -1.650688   -0.359964
     12          6           0       -1.792953   -1.601802    0.099833
     13          6           0       -3.273097   -1.382595   -0.011871
     14          6           0       -3.808815   -0.153525   -0.129695
     15          6           0       -2.976680    1.014647   -0.193021
     16          1           0        4.259289   -0.960212   -1.375403
     17          1           0        4.345418    1.294255   -0.337512
     18          1           0        2.544954   -0.087827    1.610369
     19          1           0        1.181761    2.946661   -0.249091
     20          1           0       -1.270808    3.028547   -0.545624
     21          1           0        0.692742   -2.514435    0.289390
     22          1           0        2.769673   -2.661891   -0.628387
     23          1           0       -1.589054   -2.238120    0.973922
     24          1           0       -1.461108   -2.216320   -0.756058
     25          1           0       -3.902480   -2.266980   -0.027860
     26          1           0       -4.883391   -0.031123   -0.222782
     27          1           0       -3.435540    1.976895   -0.398070
 ---------------------------------------------------------------------

 SCF Done:  E(RB3LYP) =  -578.705228529     A.U. after    1 cycles

 The electronic state is 1-A.
 Alpha  occ. eigenvalues --  -10.19833 -10.19669 -10.19500 -10.19417 -10.19253
 Alpha  occ. eigenvalues --  -10.19230 -10.19126 -10.19028 -10.18956 -10.18871
 Alpha  occ. eigenvalues --  -10.18719 -10.18680 -10.18458 -10.18446 -10.16794
 Alpha  occ. eigenvalues --   -0.87398  -0.83796  -0.80448  -0.78049  -0.75624
 Alpha  occ. eigenvalues --   -0.73446  -0.72300  -0.65949  -0.63049  -0.61730
 Alpha  occ. eigenvalues --   -0.58810  -0.56291  -0.52177  -0.50373  -0.49725
 Alpha  occ. eigenvalues --   -0.48049  -0.46405  -0.44713  -0.44025  -0.43726
 Alpha  occ. eigenvalues --   -0.41951  -0.41567  -0.40167  -0.38484  -0.37745
 Alpha  occ. eigenvalues --   -0.37106  -0.36026  -0.35129  -0.33318  -0.31629
 Alpha  occ. eigenvalues --   -0.31128  -0.29411  -0.26390  -0.24316  -0.21753
 Alpha  occ. eigenvalues --   -0.15776
 Alpha virt. eigenvalues --   -0.08475  -0.03819   0.00116   0.01670   0.07052
 Alpha virt. eigenvalues --    0.09152   0.09643   0.10691   0.11652   0.13835
 Alpha virt. eigenvalues --    0.13962   0.14537   0.16153   0.16813   0.17223

 Mulliken charges:
               1
     1  C   -0.055966
     2  C   -0.125789
     3  C   -0.334406
     4  C    0.249945
     5  C   -0.216157
     6  C   -0.173802
     7  C    0.254631
     8  C    0.102028
     9  C    0.086997
    10  C   -0.176467
    11  C   -0.068130
    12  C   -0.401270
    13  C   -0.092350
    14  C   -0.060810
    15  C   -0.210337
    16  H    0.087892
    17  H    0.100854
    18  H    0.108506
    19  H    0.099342
    20  H    0.096007
    21  H    0.088136
    22  H    0.089469
    23  H    0.135036
    24  H    0.132962
    25  H    0.098057
    26  H    0.091843
    27  H    0.093778
 Sum of Mulliken charges =  -0.00000

 Dipole moment (field-independent basis, Debye):
    X=             -1.0558    Y=             -0.8038    Z=             -0.8351  Tot=              1.5679
 Quadrupole moment (field-independent basis, Debye-Ang):
   XX=            -79.8565   YY=            -78.8153   ZZ=            -90.2038
   XY=              0.1738   XZ=             -1.9012   YZ=             -1.4840

  Exact polarizability: 345.403  14.558 164.180   9.596  -0.440  80.886
 Approx polarizability:1034.224  90.870 298.171  99.475   9.358 158.260

                      1                      2                      3
                      A                      A                      A
 Frequencies --     62.5382                96.9687               128.2686
 Red. masses --      3.8477                 3.3438                 3.3576
 Frc consts  --      0.0089                 0.0185                 0.0325
 IR Inten    --      0.0578                 0.7182                 1.0865

                      4                      5                      6
                      A                      A                      A
 Frequencies --    172.8157               204.2748               261.7368
 Red. masses --      3.6302                 3.5481                 3.3873
 Frc consts  --      0.0639                 0.0872                 0.1367
 IR Inten    --      0.5392                 0.4070                 4.3468

                      7                      8                      9
                      A                      A                      A
 Frequencies --    324.3624               329.7034               400.0179
 Red. masses --      2.9174                 3.9386                 3.7076
 Frc consts  --      0.1808                 0.2523                 0.3495
 IR Inten    --      5.7522                 6.9676                69.5279

                     10                     11                     12
                      A                      A                      A
 Frequencies --    412.9183               446.1107               467.5814
 Red. masses --      4.7885                 4.7640                 3.8834
 Frc consts  --      0.4810                 0.5586                 0.5002
 IR Inten    --      2.0302                50.3722                 2.5603

                     13                     14                     15
                      A                      A                      A
 Frequencies --    491.8319               510.5483               516.2462
 Red. masses --      3.3204                 3.4285                 4.2223
 Frc consts  --      0.4732                 0.5265                 0.6630
 IR Inten    --      4.4114                 9.5118                 2.5359

                     16                     17                     18
                      A                      A                      A
 Frequencies --    587.3181               610.8404               637.5772
 Red. masses --      3.1691                 4.1406                 2.7461
 Frc consts  --      0.6441                 0.9103                 0.6577
 IR Inten    --      1.9406                 5.5907                 5.9210

                     19                     20                     21
                      A                      A                      A
 Frequencies --    665.5440               712.0074               716.4408
 Red. masses --      3.0673                 2.3953                 1.4661
 Frc consts  --      0.8005                 0.7155                 0.4434
 IR Inten    --     19.6340                20.3076                33.9550

                     22                     23                     24
                      A                      A                      A
 Frequencies --    744.6194               783.9537               802.9148
 Red. masses --      2.7298                 2.6495                 1.7713
 Frc consts  --      0.8918                 0.9594                 0.6728
 IR Inten    --      7.9459                 9.1486                 7.0720

                     25                     26                     27
                      A                      A                      A
 Frequencies --    823.7384               829.5491               844.3100
 Red. masses --      3.2306                 2.1735                 3.1345
 Frc consts  --      1.2916                 0.8812                 1.3165
 IR Inten    --     19.3659                 0.4617                 4.4582

                     28                     29                     30
                      A                      A                      A
 Frequencies --    888.4791               896.3642               925.5317
 Red. masses --      1.6172                 1.5858                 2.6649
 Frc consts  --      0.7521                 0.7507                 1.3450
 IR Inten    --     59.5238                63.1942               126.4343

                     31                     32                     33
                      A                      A                      A
 Frequencies --    929.2690               950.5124               963.6894
 Red. masses --      3.1815                 2.1661                 1.4501
 Frc consts  --      1.6187                 1.1530                 0.7935
 IR Inten    --     10.4048                 5.4063                 8.2167

                     34                     35                     36
                      A                      A                      A
 Frequencies --    969.5898               978.9853               988.5006
 Red. masses --      1.3438                 2.1986                 1.2699
 Frc consts  --      0.7443                 1.2415                 0.7311
 IR Inten    --      2.7515                 0.7846                 0.3527

                     37                     38                     39
                      A                      A                      A
 Frequencies --    999.8783              1033.4099              1081.9653
 Red. masses --      1.3316                 3.5463                 2.4766
 Frc consts  --      0.7844                 2.2314                 1.7082
 IR Inten    --      1.7107                 0.5279                 0.9537

                     40                     41                     42
                      A                      A                      A
 Frequencies --   1118.4460              1159.7813              1172.6030
 Red. masses --      2.4823                 1.4676                 1.1671
 Frc consts  --      1.8295                 1.1631                 0.9455
 IR Inten    --      4.6138                 3.6428                 0.6159

                     43                     44                     45
                      A                      A                      A
 Frequencies --   1181.2954              1191.5123              1210.1324
 Red. masses --      1.9102                 1.1198                 1.1837
 Frc consts  --      1.5706                 0.9367                 1.0213
 IR Inten    --      1.0715                 3.6775                 0.8218

                     46                     47                     48
                      A                      A                      A
 Frequencies --   1261.8523              1272.0925              1323.2600
 Red. masses --      1.7298                 1.2459                 1.7770
 Frc consts  --      1.6228                 1.1878                 1.8333
 IR Inten    --      0.5366                12.6221                18.5709

                     49                     50                     51
                      A                      A                      A
 Frequencies --   1337.9474              1368.7018              1373.6574
 Red. masses --      1.8249                 1.5470                 1.7285
 Frc consts  --      1.9247                 1.7075                 1.9217
 IR Inten    --      1.9018                12.5557                 4.1997

                     52                     53                     54
                      A                      A                      A
 Frequencies --   1406.1121              1433.5232              1438.3068
 Red. masses --      2.0840                 1.9282                 1.4163
 Frc consts  --      2.4276                 2.3346                 1.7263
 IR Inten    --      9.5022                 3.2204                 2.6058

                     55                     56                     57
                      A                      A                      A
 Frequencies --   1444.2016              1465.8385              1487.0700
 Red. masses --      1.3107                 2.6201                 3.7884
 Frc consts  --      1.6107                 3.3169                 4.9360
 IR Inten    --      4.5761                28.4182                12.2656

                     58                     59                     60
                      A                      A                      A
 Frequencies --   1530.7357              1537.4476              1571.0431
 Red. masses --      7.1964                 6.3312                 6.2651
 Frc consts  --      9.9350                 8.8174                 9.1108
 IR Inten    --      7.6807                 4.1012                 3.7928

                     61                     62                     63
                      A                      A                      A
 Frequencies --   1603.6023              1617.9405              1673.5343
 Red. masses --      4.7648                 5.4524                 5.5933
 Frc consts  --      7.2192                 8.4093                 9.2297
 IR Inten    --      0.9312                10.2158                18.7253

                     64                     65                     66
                      A                      A                      A
 Frequencies --   2942.7444              2992.9273              3055.1385
 Red. masses --      1.0751                 1.0818                 1.0812
 Frc consts  --      5.4854                 5.7092                 5.9461
 IR Inten    --     21.3039                12.3769                11.7017

                     67                     68                     69
                      A                      A                      A
 Frequencies --   3123.4693              3137.5131              3159.0680
 Red. masses --      1.0827                 1.0849                 1.0893
 Frc consts  --      6.2233                 6.2921                 6.4048
 IR Inten    --      5.7078                16.8435                26.7872

                     70                     71                     72
                      A                      A                      A
 Frequencies --   3162.9242              3163.6670              3164.8562
 Red. masses --      1.0848                 1.0905                 1.0882
 Frc consts  --      6.3941                 6.4305                 6.4221
 IR Inten    --      2.1177                97.0642                30.8898

                     73                     74                     75
                      A                      A                      A
 Frequencies --   3175.2134              3184.0024              3189.9308
 Red. masses --      1.0891                 1.0960                 1.0972
 Frc consts  --      6.4693                 6.5466                 6.5779
 IR Inten    --     16.0967                27.0155                34.7583

 - Thermochemistry -
 -------------------
 Temperature   298.150 Kelvin.  Pressure   1.00000 Atm.
 Atom     1 has atomic number  6 and mass  12.00000

 Molecular mass:   192.09390 amu.
 Principal axes and moments of inertia in atomic units:
                           1         2         3
     Eigenvalues --  1264.712424007.057095053.91065
           X            1.00000   0.00107  -0.00210
           Y           -0.00109   0.99998  -0.00640
           Z            0.00209   0.00640   0.99998
 This molecule is an asymmetric top.
 Rotational symmetry number  1.
 Warning -- assumption of classical behavior for rotation
           may cause significant error
 Rotational temperatures (Kelvin)      0.06849     0.02162     0.01714
 Rotational constants (GHZ):           1.42700     0.45039     0.35710
 Zero-point vibrational energy     573148.8 (Joules/Mol)
                                  136.98586 (Kcal/Mol)
 Warning -- explicit consideration of  17 degrees of freedom as
           vibrations may cause significant error
 Vibrational temperatures:     89.98   139.52   184.55   248.64   293.91
          (Kelvin)            376.58   466.69   474.37   575.54   594.10
                              641.85   672.75   707.64   734.57   742.76
                              845.02   878.86   917.33   957.57  1024.42
                             1030.80  1071.34  1127.93  1155.22  1185.18
                             1193.54  1214.77  1278.32  1289.67  1331.63
                             1337.01  1367.58  1386.53  1395.02  1408.54
                             1422.23  1438.60  1486.85  1556.71  1609.19
                             1668.67  1687.11  1699.62  1714.32  1741.11
                             1815.52  1830.26  1903.88  1925.01  1969.26
                             1976.39  2023.08  2062.52  2069.40  2077.88
                             2109.01  2139.56  2202.39  2212.04  2260.38
                             2307.23  2327.86  2407.84  4233.95  4306.15
                             4395.66  4493.98  4514.18  4545.19  4550.74
                             4551.81  4553.52  4568.42  4581.07  4589.60

 Zero-point correction=                           0.218301 (Hartree/Particle)
 Thermal correction to Energy=                    0.229563
 Thermal correction to Enthalpy=                  0.230507
 Thermal correction to Gibbs Free Energy=         0.181316
 Sum of electronic and zero-point Energies=           -578.486928
 Sum of electronic and thermal Energies=              -578.475666
 Sum of electronic and thermal Enthalpies=            -578.474722
 Sum of electronic and thermal Free Energies=         -578.523913

                     E (Thermal)             CV                S
                      KCal/Mol        Cal/Mol-Kelvin    Cal/Mol-Kelvin
 Total                  144.053             47.282            103.532
 Electronic               0.000              0.000              0.000
 Translational            0.889              2.981             41.664
 Rotational               0.889              2.981             31.616
 Vibrational            142.275             41.321             30.252
 Vibration     1          0.597              1.972              4.375
 Vibration     2          0.603              1.951              3.514
 Vibration     3          0.611              1.925              2.972
 Vibration     4          0.626              1.876              2.405
 Vibration     5          0.640              1.834              2.094
 Vibration     6          0.669              1.743              1.650
 Vibration     7          0.709              1.627              1.288
 Vibration     8          0.712              1.616              1.262
 Vibration     9          0.766              1.470              0.963
 Vibration    10          0.777              1.442              0.916
 Vibration    11          0.805              1.369              0.808
 Vibration    12          0.825              1.322              0.744
 Vibration    13          0.848              1.268              0.679
 Vibration    14          0.866              1.227              0.632
 Vibration    15          0.871              1.214              0.619
 Vibration    16          0.944              1.059              0.472
 Vibration    17          0.970              1.009              0.431

                           ! Non-Optimized Parameters !
 Normal termination of Gaussian 16 at Thu May 18 01:12:15 2023.
