 Gaussian 16, Revision A.03,
 Gaussian 16:  ES64L-G16RevA.03 25-Dec-2016

 -----------------------------
 # opt freq b3lyp/6-31g(2df,p)
 -----------------------------

 -------------------
 Title Card Required
 -------------------
 Symbolic Z-matrix:
 Charge =  0 Multiplicity = 1

 SCF Done:  E(RB3LYP) =  -713.124623483     A.U. after   38 cycles
 SCF Done:  E(RB3LYP) =  -713.197874969     A.U. after   26 cycles
 SCF Done:  E(RB3LYP) =  -713.319372877     A.U. after   26 cycles
 SCF Done:  E(RB3LYP) =  -713.475829949     A.U. after   26 cycles
 SCF Done:  E(RB3LYP) =  -713.523898377     A.U. after   28 cycles
 SCF Done:  E(RB3LYP) =  -713.661543325     A.U. after   31 cycles
 SCF Done:  E(RB3LYP) =  -713.761879126     A.U. after   34 cycles
 SCF Done:  E(RB3LYP) =  -713.806724363     A.U. after   25 cycles
 SCF Done:  E(RB3LYP) =  -713.859017216     A.U. after   24 cycles
 SCF Done:  E(RB3LYP) =  -713.896878812     A.U. after   25 cycles
 SCF Done:  E(RB3LYP) =  -714.139940574     A.U. after   12 cycles
 SCF Done:  E(RB3LYP) =  -714.139949335     A.U. after   13 cycles
 SCF Done:  E(RB3LYP) =  -714.139957029     A.U. after   13 cycles
 SCF Done:  E(RB3LYP) =  -714.139962910     A.U. after   13 cycles
 SCF Done:  E(RB3LYP) =  -714.139967252     A.U. after   11 cycles
 SCF Done:  E(RB3LYP) =  -714.139970022     A.U. after   11 cycles
 SCF Done:  E(RB3LYP) =  -714.139970740     A.U. after   11 cycles
 SCF Done:  E(RB3LYP) =  -714.139971358     A.U. after    9 cycles
 SCF Done:  E(RB3LYP) =  -714.139971813     A.U. after    9 cycles
 Optimization completed.
    -- Stationary point found.
 Normal termination of Gaussian 16 at Fri May 19 17:52:28 2023.

 ----------------------------------------------------------------------
 #N Geom=AllCheck Guess=TCheck SCRF=Check GenChk RB3LYP/6-31G(2df,p) Fr
 eq
 ----------------------------------------------------------------------

 Structure from the checkpoint file:  "C1dNNdCN2NdCNdCNdCCdCCdCCd12.chk"
 -------------------
 Title Card Required
 -------------------
 Charge =  0 Multiplicity = 1

                         Standard orientation:
 ---------------------------------------------------------------------
 Center     Atomic      Atomic             Coordinates (Angstroms)
 Number     Number       Type             X           Y           Z
 ---------------------------------------------------------------------
      1          6           0       -4.624440   -1.096552   -0.002489
      2          7           0       -5.707479   -0.457106   -0.194086
      3          7           0       -5.230003    0.906347   -0.062715
      4          6           0       -3.968857    1.154063    0.015917
      5          7           0       -2.913048    0.194927    0.069929
      6          7           0       -1.686097    0.645107    0.032621
      7          6           0       -0.723950   -0.281962   -0.005970
      8          7           0        0.537092    0.106489    0.008114
      9          6           0        1.511514   -0.768714   -0.017333
     10          7           0        2.819697   -0.336372   -0.014257
     11          6           0        3.857322   -1.248123   -0.035441
     12          6           0        5.168577   -0.844466   -0.033666
     13          6           0        5.501532    0.512353   -0.009656
     14          6           0        4.444820    1.427578    0.012987
     15          6           0        3.137485    1.010823    0.010950
     16          6           0       -3.374641   -1.116953    0.271061
     17          1           0       -3.634514    2.182935    0.022839
     18          1           0       -1.013473   -1.339408   -0.046487
     19          1           0        1.391194   -1.850875   -0.038354
     20          1           0        3.558376   -2.286998   -0.053859
     21          1           0        5.934997   -1.610514   -0.051722
     22          1           0        6.532590    0.839415   -0.008443
     23          1           0        4.632705    2.495066    0.032567
     24          1           0        2.280826    1.666364    0.028061
 ---------------------------------------------------------------------

 SCF Done:  E(RB3LYP) =  -714.139971813     A.U. after    3 cycles

 The electronic state is 1-A.
 Alpha  occ. eigenvalues --  -14.46383 -14.44845 -14.38435 -14.36531 -14.35978
 Alpha  occ. eigenvalues --  -14.33782 -10.26805 -10.25399 -10.25084 -10.24474
 Alpha  occ. eigenvalues --  -10.24231 -10.23699 -10.22611 -10.22360 -10.21482
 Alpha  occ. eigenvalues --  -10.19783  -1.07092  -1.03532  -1.00634  -0.93999
 Alpha  occ. eigenvalues --   -0.86046  -0.84554  -0.83665  -0.80109  -0.74339
 Alpha  occ. eigenvalues --   -0.70573  -0.67789  -0.65283  -0.63307  -0.59680
 Alpha  occ. eigenvalues --   -0.55719  -0.54345  -0.53270  -0.51587  -0.50752
 Alpha  occ. eigenvalues --   -0.49211  -0.48444  -0.47900  -0.47236  -0.46962
 Alpha  occ. eigenvalues --   -0.45954  -0.40372  -0.40100  -0.39239  -0.37069
 Alpha  occ. eigenvalues --   -0.37048  -0.33068  -0.31219  -0.30651  -0.29724
 Alpha  occ. eigenvalues --   -0.28652  -0.27998  -0.25058  -0.24774  -0.15705
 Alpha virt. eigenvalues --   -0.09881  -0.07039  -0.03771  -0.02535  -0.00956
 Alpha virt. eigenvalues --    0.05524   0.07009   0.09289   0.10899   0.11968
 Alpha virt. eigenvalues --    0.12888   0.13151   0.13296   0.14227   0.15095

 Mulliken charges:
               1
     1  C    0.258553
     2  N   -0.264918
     3  N   -0.206654
     4  C    0.165033
     5  N    0.075252
     6  N   -0.272184
     7  C    0.074808
     8  N   -0.265187
     9  C    0.036705
    10  N   -0.082973
    11  C    0.018460
    12  C   -0.143421
    13  C   -0.123638
    14  C   -0.132880
    15  C    0.011532
    16  C   -0.220011
    17  H    0.170780
    18  H    0.105689
    19  H    0.111641
    20  H    0.142624
    21  H    0.122195
    22  H    0.117546
    23  H    0.124387
    24  H    0.176659
 Sum of Mulliken charges =  -0.00000

 Dipole moment (field-independent basis, Debye):
    X=              9.3316    Y=             -0.6177    Z=             -0.1235  Tot=              9.3528
 Quadrupole moment (field-independent basis, Debye-Ang):
   XX=            -98.8529   YY=            -82.4980   ZZ=            -93.0075
   XY=             -3.5182   XZ=             -1.0926   YZ=              0.8795

  Exact polarizability: 706.299  24.110 141.860  -2.308  -0.874  61.942
 Approx polarizability:2469.254 182.126 292.009 -15.356  -5.855 106.903

                      1                      2                      3
                      A                      A                      A
 Frequencies --     39.3629                47.5973                52.8525
 Red. masses --      8.0755                 6.1196                 5.7382
 Frc consts  --      0.0074                 0.0082                 0.0094
 IR Inten    --      1.1615                 1.6166                 1.2914

                      4                      5                      6
                      A                      A                      A
 Frequencies --     75.3255               137.8020               155.7498
 Red. masses --      6.8930                 6.1621                 7.1976
 Frc consts  --      0.0230                 0.0689                 0.1029
 IR Inten    --     31.9077                23.4823                24.1626

                      7                      8                      9
                      A                      A                      A
 Frequencies --    224.6114               254.4172               272.6693
 Red. masses --      3.8490                 5.9311                 3.4343
 Frc consts  --      0.1144                 0.2262                 0.1504
 IR Inten    --     16.2369                 5.8502                52.6407

                     10                     11                     12
                      A                      A                      A
 Frequencies --    336.5976               345.1657               414.9066
 Red. masses --      4.9354                 5.9173                 6.4104
 Frc consts  --      0.3295                 0.4154                 0.6502
 IR Inten    --     47.3369                 2.7492                73.6842

                     13                     14                     15
                      A                      A                      A
 Frequencies --    424.0576               461.8564               496.2696
 Red. masses --      3.1453                 8.8809                 3.0598
 Frc consts  --      0.3332                 1.1161                 0.4440
 IR Inten    --      2.5845                37.6800                10.2956

                     16                     17                     18
                      A                      A                      A
 Frequencies --    543.9440               562.4363               593.8462
 Red. masses --     10.1725                 7.0160                 7.7620
 Frc consts  --      1.7733                 1.3076                 1.6128
 IR Inten    --      1.5980                 1.8871                14.7628

                     19                     20                     21
                      A                      A                      A
 Frequencies --    621.5938               650.5775               655.0695
 Red. masses --      5.0587                 7.6547                 6.8906
 Frc consts  --      1.1516                 1.9089                 1.7421
 IR Inten    --      2.4857                 3.2904                 3.3849

                     22                     23                     24
                      A                      A                      A
 Frequencies --    682.1268               684.7028               728.2490
 Red. masses --      3.5873                 3.1126                 9.4870
 Frc consts  --      0.9834                 0.8598                 2.9644
 IR Inten    --     25.5934                15.1796                14.2173

                     25                     26                     27
                      A                      A                      A
 Frequencies --    738.1042               764.7764               825.5300
 Red. masses --      1.4504                 1.5835                 1.3090
 Frc consts  --      0.4656                 0.5457                 0.5256
 IR Inten    --     11.5379                34.4087                 1.0697

                     28                     29                     30
                      A                      A                      A
 Frequencies --    846.0777               870.2598               881.0881
 Red. masses --      8.5130                 1.4026                 4.4192
 Frc consts  --      3.5905                 0.6259                 2.0213
 IR Inten    --     36.7748                 5.4502                 6.7447

                     31                     32                     33
                      A                      A                      A
 Frequencies --    882.9818               917.6422               929.1563
 Red. masses --      1.4707                 1.9204                 3.5041
 Frc consts  --      0.6756                 0.9528                 1.7824
 IR Inten    --     46.0510                27.9109               118.5311

                     34                     35                     36
                      A                      A                      A
 Frequencies --    961.2994               982.4831              1011.3511
 Red. masses --      1.2878                 1.2524                 6.1951
 Frc consts  --      0.7011                 0.7122                 3.7334
 IR Inten    --      0.0402                 0.1454               283.8829

                     37                     38                     39
                      A                      A                      A
 Frequencies --   1054.1531              1092.3867              1112.0894
 Red. masses --      2.1717                 3.3375                 2.6723
 Frc consts  --      1.4219                 2.3465                 1.9472
 IR Inten    --      0.2247                50.6968                19.7112

                     40                     41                     42
                      A                      A                      A
 Frequencies --   1169.3909              1210.9801              1221.3884
 Red. masses --      1.1241                 1.5113                 3.1282
 Frc consts  --      0.9057                 1.3058                 2.7495
 IR Inten    --      3.2234               508.6490                71.6244

                     43                     44                     45
                      A                      A                      A
 Frequencies --   1249.4779              1267.7668              1290.8303
 Red. masses --      1.9462                 2.5378                 2.0177
 Frc consts  --      1.7901                 2.4032                 1.9808
 IR Inten    --    166.9666                50.2398                84.9641

                     46                     47                     48
                      A                      A                      A
 Frequencies --   1301.2566              1320.9269              1347.6288
 Red. masses --      3.0961                 1.9290                 2.5114
 Frc consts  --      3.0888                 1.9830                 2.6873
 IR Inten    --     28.2379               145.1233                11.5768

                     49                     50                     51
                      A                      A                      A
 Frequencies --   1366.2224              1400.3140              1490.9411
 Red. masses --      1.5704                 2.4699                 4.3967
 Frc consts  --      1.7270                 2.8535                 5.7583
 IR Inten    --      3.4833                 8.3752               301.8375

                     52                     53                     54
                      A                      A                      A
 Frequencies --   1492.9177              1534.5858              1543.0446
 Red. masses --      1.9598                 4.3613                 4.4395
 Frc consts  --      2.5735                 6.0512                 6.2278
 IR Inten    --    445.6670                18.5442               101.2066

                     55                     56                     57
                      A                      A                      A
 Frequencies --   1553.2149              1574.9312              1666.7920
 Red. masses --      4.4507                 4.1564                 5.2829
 Frc consts  --      6.3262                 6.0742                 8.6473
 IR Inten    --    181.5376               394.2563               421.6657

                     58                     59                     60
                      A                      A                      A
 Frequencies --   1820.0763              3034.9773              3120.5362
 Red. masses --     11.8264                 1.0837                 1.0862
 Frc consts  --     23.0825                 5.8811                 6.2319
 IR Inten    --    656.2259                18.6592                14.9691

                     61                     62                     63
                      A                      A                      A
 Frequencies --   3197.8084              3202.2176              3225.3113
 Red. masses --      1.0870                 1.0893                 1.0930
 Frc consts  --      6.5489                 6.5809                 6.6990
 IR Inten    --     21.2198                 6.7680                 0.7889

                     64                     65                     66
                      A                      A                      A
 Frequencies --   3231.9880              3241.8756              3264.8890
 Red. masses --      1.0958                 1.0924                 1.0927
 Frc consts  --      6.7440                 6.7644                 6.8628
 IR Inten    --      0.5502                 4.2019                 2.1603

 - Thermochemistry -
 -------------------
 Temperature   298.150 Kelvin.  Pressure   1.00000 Atm.
 Atom     1 has atomic number  6 and mass  12.00000

 Molecular mass:   212.08104 amu.
 Principal axes and moments of inertia in atomic units:
                           1         2         3
     Eigenvalues --   615.65094********************
           X            1.00000  -0.00204  -0.00015
           Y            0.00204   0.99999   0.00300
           Z            0.00014  -0.00300   1.00000
 This molecule is an asymmetric top.
 Rotational symmetry number  1.
 Warning -- assumption of classical behavior for rotation
           may cause significant error
 Rotational temperatures (Kelvin)      0.14069     0.00787     0.00746
 Rotational constants (GHZ):           2.93144     0.16403     0.15549
 Zero-point vibrational energy     452627.8 (Joules/Mol)
                                  108.18064 (Kcal/Mol)
 Warning -- explicit consideration of  18 degrees of freedom as
           vibrations may cause significant error
 Vibrational temperatures:     56.63    68.48    76.04   108.38   198.27
          (Kelvin)            224.09   323.17   366.05   392.31   484.29
                              496.62   596.96   610.12   664.51   714.02
                              782.61   809.22   854.41   894.33   936.04
                              942.50   981.43   985.13  1047.79  1061.97
                             1100.34  1187.75  1217.32  1252.11  1267.69
                             1270.41  1320.28  1336.85  1383.10  1413.57
                             1455.11  1516.69  1571.70  1600.05  1682.49
                             1742.33  1757.31  1797.72  1824.03  1857.22
                             1872.22  1900.52  1938.94  1965.69  2014.74
                             2145.13  2147.98  2207.93  2220.10  2234.73
                             2265.97  2398.14  2618.68  4366.66  4489.76
                             4600.93  4607.28  4640.50  4650.11  4664.34
                             4697.45

 Zero-point correction=                           0.172397 (Hartree/Particle)
 Thermal correction to Energy=                    0.185357
 Thermal correction to Enthalpy=                  0.186301
 Thermal correction to Gibbs Free Energy=         0.131202
 Sum of electronic and zero-point Energies=           -713.967575
 Sum of electronic and thermal Energies=              -713.954615
 Sum of electronic and thermal Enthalpies=            -713.953671
 Sum of electronic and thermal Free Energies=         -714.008769

                     E (Thermal)             CV                S
                      KCal/Mol        Cal/Mol-Kelvin    Cal/Mol-Kelvin
 Total                  116.313             49.694            115.965
 Electronic               0.000              0.000              0.000
 Translational            0.889              2.981             41.959
 Rotational               0.889              2.981             32.730
 Vibrational            114.536             43.732             41.276
 Vibration     1          0.594              1.981              5.291
 Vibration     2          0.595              1.978              4.915
 Vibration     3          0.596              1.976              4.708
 Vibration     4          0.599              1.965              4.009
 Vibration     5          0.614              1.916              2.834
 Vibration     6          0.620              1.896              2.601
 Vibration     7          0.649              1.804              1.922
 Vibration     8          0.665              1.755              1.700
 Vibration     9          0.676              1.724              1.579
 Vibration    10          0.717              1.602              1.228
 Vibration    11          0.724              1.585              1.188
 Vibration    12          0.778              1.438              0.909
 Vibration    13          0.786              1.418              0.878
 Vibration    14          0.820              1.335              0.761
 Vibration    15          0.852              1.258              0.668
 Vibration    16          0.899              1.153              0.557
 Vibration    17          0.918              1.113              0.519
 Vibration    18          0.951              1.045              0.460

                           ! Non-Optimized Parameters !
 Normal termination of Gaussian 16 at Fri May 19 19:26:38 2023.
