 Gaussian 16, Revision A.03,
 Gaussian 16:  ES64L-G16RevA.03 25-Dec-2016

 -----------------------------
 # opt freq b3lyp/6-31g(2df,p)
 -----------------------------

 -------------------
 Title Card Required
 -------------------
 Symbolic Z-matrix:
 Charge =  0 Multiplicity = 1

 SCF Done:  E(RB3LYP) =  -1251.04652296     A.U. after   21 cycles
 SCF Done:  E(RB3LYP) =  -1251.09037055     A.U. after   15 cycles
 SCF Done:  E(RB3LYP) =  -1251.12469966     A.U. after   16 cycles
 SCF Done:  E(RB3LYP) =  -1251.13065500     A.U. after   14 cycles
 SCF Done:  E(RB3LYP) =  -1251.13393771     A.U. after   14 cycles
 SCF Done:  E(RB3LYP) =  -1251.13486261     A.U. after   13 cycles
 SCF Done:  E(RB3LYP) =  -1251.13638288     A.U. after   15 cycles
 SCF Done:  E(RB3LYP) =  -1251.14693554     A.U. after   21 cycles
 SCF Done:  E(RB3LYP) =  -1251.16352318     A.U. after   17 cycles
 SCF Done:  E(RB3LYP) =  -1251.18795144     A.U. after   15 cycles
 SCF Done:  E(RB3LYP) =  -1251.20211689     A.U. after   15 cycles
 SCF Done:  E(RB3LYP) =  -1251.20270316     A.U. after   14 cycles
 SCF Done:  E(RB3LYP) =  -1251.20303770     A.U. after   15 cycles
 SCF Done:  E(RB3LYP) =  -1251.20315799     A.U. after   14 cycles
 SCF Done:  E(RB3LYP) =  -1251.20331588     A.U. after   13 cycles
 SCF Done:  E(RB3LYP) =  -1251.20338871     A.U. after   13 cycles
 SCF Done:  E(RB3LYP) =  -1251.20340983     A.U. after   11 cycles
 SCF Done:  E(RB3LYP) =  -1251.20341248     A.U. after   10 cycles
 SCF Done:  E(RB3LYP) =  -1251.20341344     A.U. after    9 cycles
 Optimization completed.
    -- Stationary point found.
 Normal termination of Gaussian 16 at Wed May 17 16:24:08 2023.

 ----------------------------------------------------------------------
 #N Geom=AllCheck Guess=TCheck SCRF=Check GenChk RB3LYP/6-31G(2df,p) Fr
 eq
 ----------------------------------------------------------------------

 Structure from the checkpoint file:  "C1dNC2dc3sccc3dNC23SC3dC1.chk"
 -------------------
 Title Card Required
 -------------------
 Charge =  0 Multiplicity = 1

                         Standard orientation:
 ---------------------------------------------------------------------
 Center     Atomic      Atomic             Coordinates (Angstroms)
 Number     Number       Type             X           Y           Z
 ---------------------------------------------------------------------
      1          6           0       -1.791744    2.239060   -0.000524
      2          7           0       -0.400385    2.112265    0.000772
      3          6           0        0.046840    0.904610    0.000347
      4          6           0        1.390180    0.366448    0.001702
      5         16           0        3.035253    0.828657    0.000005
      6          6           0        3.534934   -0.832001   -0.001211
      7          6           0        2.477965   -1.712559   -0.000486
      8          6           0        1.251496   -1.012292    0.001110
      9          7           0       -0.100095   -1.430302    0.000353
     10          6           0       -0.804343   -0.335006   -0.000445
     11         16           0       -3.334702   -1.425154    0.000267
     12          6           0       -2.255765   -0.174699   -0.000642
     13          6           0       -2.681300    1.213591   -0.000907
     14          1           0       -2.141069    3.266449   -0.000963
     15          1           0        4.590048   -1.061297   -0.002004
     16          1           0        2.582157   -2.788816   -0.001294
     17          1           0       -3.746184    1.410944   -0.001629
 ---------------------------------------------------------------------

 SCF Done:  E(RB3LYP) =  -1251.20341344     A.U. after    1 cycles

 The electronic state is 1-A.
 Alpha  occ. eigenvalues --  -88.94019 -88.87135 -14.36239 -14.36080 -10.26478
 Alpha  occ. eigenvalues --  -10.26245 -10.24844 -10.24537 -10.23927 -10.23279
 Alpha  occ. eigenvalues --  -10.22515 -10.21740 -10.21430  -8.00015  -7.93557
 Alpha  occ. eigenvalues --   -5.96395  -5.96039  -5.95853  -5.89948  -5.89828
 Alpha  occ. eigenvalues --   -5.89011  -0.99499  -0.95280  -0.89248  -0.83929
 Alpha  occ. eigenvalues --   -0.78159  -0.74868  -0.74242  -0.70557  -0.63440
 Alpha  occ. eigenvalues --   -0.62763  -0.57623  -0.54688  -0.53133  -0.50449
 Alpha  occ. eigenvalues --   -0.48662  -0.45880  -0.45133  -0.43161  -0.41071
 Alpha  occ. eigenvalues --   -0.40054  -0.39643  -0.38653  -0.37609  -0.36637
 Alpha  occ. eigenvalues --   -0.33986  -0.32007  -0.28612  -0.26722  -0.24889
 Alpha  occ. eigenvalues --   -0.23670  -0.23251
 Alpha virt. eigenvalues --   -0.15805  -0.05738  -0.00707   0.00679   0.01323
 Alpha virt. eigenvalues --    0.06432   0.07941   0.08574   0.09847   0.12320
 Alpha virt. eigenvalues --    0.12857   0.15118   0.15981   0.16365   0.18132

 Mulliken charges:
               1
     1  C   -0.025813
     2  N   -0.356782
     3  C    0.229322
     4  C    0.027794
     5  S    0.022104
     6  C   -0.152092
     7  C   -0.194552
     8  C    0.281147
     9  N   -0.347050
    10  C    0.194408
    11  S   -0.244443
    12  C    0.150672
    13  C   -0.132235
    14  H    0.128217
    15  H    0.146743
    16  H    0.137711
    17  H    0.134850
 Sum of Mulliken charges =  -0.00000

 Dipole moment (field-independent basis, Debye):
    X=              2.5884    Y=              1.2337    Z=             -0.0044  Tot=              2.8674
 Quadrupole moment (field-independent basis, Debye-Ang):
   XX=            -77.5315   YY=            -87.6593   ZZ=            -86.9586
   XY=            -12.0598   XZ=             -0.0041   YZ=             -0.0023

  Exact polarizability: 283.073   7.190 158.334  -0.013   0.002  60.429
 Approx polarizability: 581.148  42.993 342.271  -0.049   0.014 108.722

                      1                      2                      3
                      A                      A                      A
 Frequencies --     65.7519               106.4414               169.2485
 Red. masses --     12.7353                 5.2780                11.5676
 Frc consts  --      0.0324                 0.0352                 0.1952
 IR Inten    --      0.1290                 2.4511                 0.3788

                      4                      5                      6
                      A                      A                      A
 Frequencies --    185.4076               261.6602               302.0534
 Red. masses --      7.1382                12.4455                 7.3433
 Frc consts  --      0.1446                 0.5020                 0.3947
 IR Inten    --      1.1040                 0.5390                 0.4748

                      7                      8                      9
                      A                      A                      A
 Frequencies --    325.4552               398.7599               399.0671
 Red. masses --      9.6571                11.4996                 4.0768
 Frc consts  --      0.6027                 1.0773                 0.3825
 IR Inten    --      3.8109                 8.6975                14.9286

                     10                     11                     12
                      A                      A                      A
 Frequencies --    472.3624               498.5951               520.5306
 Red. masses --      7.3962                 4.2096                 9.4617
 Frc consts  --      0.9723                 0.6166                 1.5105
 IR Inten    --      6.5467                 2.8034                 4.8643

                     13                     14                     15
                      A                      A                      A
 Frequencies --    602.4431               634.4270               665.8279
 Red. masses --      8.4871                 5.5862                 9.1800
 Frc consts  --      1.8149                 1.3247                 2.3978
 IR Inten    --      8.4169                 0.0634                 3.3308

                     16                     17                     18
                      A                      A                      A
 Frequencies --    678.5113               694.8671               753.5728
 Red. masses --      9.5864                 2.0063                 1.9803
 Frc consts  --      2.6003                 0.5707                 0.6626
 IR Inten    --      2.4187                14.6761                22.4020

                     19                     20                     21
                      A                      A                      A
 Frequencies --    794.7237               823.1830               824.3224
 Red. masses --      8.2195                 7.2543                 4.3618
 Frc consts  --      3.0586                 2.8963                 1.7463
 IR Inten    --      8.4118                18.1798                 0.3601

                     22                     23                     24
                      A                      A                      A
 Frequencies --    847.9894               866.8597               905.6256
 Red. masses --      1.6483                 5.8133                 1.3531
 Frc consts  --      0.6983                 2.5738                 0.6539
 IR Inten    --     18.0786                 4.4246                 4.0057

                     25                     26                     27
                      A                      A                      A
 Frequencies --    997.3045               999.2423              1056.3474
 Red. masses --      1.3637                 4.6776                 2.5840
 Frc consts  --      0.7991                 2.7518                 1.6989
 IR Inten    --      0.0007                 7.1689                 0.6152

                     28                     29                     30
                      A                      A                      A
 Frequencies --   1086.0432              1108.5468              1179.7006
 Red. masses --      7.4232                 1.4704                 3.1813
 Frc consts  --      5.1587                 1.0647                 2.6086
 IR Inten    --      7.4706                 2.8662                23.3142

                     31                     32                     33
                      A                      A                      A
 Frequencies --   1223.0824              1238.7711              1319.1544
 Red. masses --      2.3511                 1.5941                 5.9877
 Frc consts  --      2.0722                 1.4412                 6.1390
 IR Inten    --     16.9376                18.4085                29.9754

                     34                     35                     36
                      A                      A                      A
 Frequencies --   1333.8299              1368.4413              1425.9181
 Red. masses --      4.9039                 4.6609                 1.7069
 Frc consts  --      5.1403                 5.1425                 2.0448
 IR Inten    --     19.5428                 4.0060                35.9365

                     37                     38                     39
                      A                      A                      A
 Frequencies --   1439.0640              1511.5907              1542.8714
 Red. masses --      4.7284                 8.5698                 6.5597
 Frc consts  --      5.7694                11.5369                 9.2001
 IR Inten    --     23.2121                 8.3939                 1.7945

                     40                     41                     42
                      A                      A                      A
 Frequencies --   1557.9660              1668.0744              3184.9749
 Red. masses --      8.5245                 8.7190                 1.0884
 Frc consts  --     12.1908                14.2938                 6.5051
 IR Inten    --     56.9016                95.3951                19.7273

                     43                     44                     45
                      A                      A                      A
 Frequencies --   3215.5401              3231.9049              3257.7590
 Red. masses --      1.0946                 1.0901                 1.0983
 Frc consts  --      6.6684                 6.7085                 6.8675
 IR Inten    --      4.6533                 1.4354                 0.1901

 - Thermochemistry -
 -------------------
 Temperature   298.150 Kelvin.  Pressure   1.00000 Atm.
 Atom     1 has atomic number  6 and mass  12.00000

 Molecular mass:   203.98159 amu.
 Principal axes and moments of inertia in atomic units:
                           1         2         3
     Eigenvalues --  1234.931604139.418995374.34977
           X            0.99957  -0.02946  -0.00000
           Y            0.02946   0.99957   0.00000
           Z            0.00000  -0.00000   1.00000
 This molecule is an asymmetric top.
 Rotational symmetry number  1.
 Warning -- assumption of classical behavior for rotation
           may cause significant error
 Rotational temperatures (Kelvin)      0.07014     0.02092     0.01612
 Rotational constants (GHZ):           1.46141     0.43599     0.33581
 Zero-point vibrational energy     285571.4 (Joules/Mol)
                                   68.25321 (Kcal/Mol)
 Warning -- explicit consideration of  13 degrees of freedom as
           vibrations may cause significant error
 Vibrational temperatures:     94.60   153.15   243.51   266.76   376.47
          (Kelvin)            434.59   468.26   573.73   574.17   679.62
                              717.37   748.93   866.78   912.80   957.98
                              976.23   999.76  1084.22  1143.43  1184.38
                             1186.02  1220.07  1247.22  1302.99  1434.90
                             1437.69  1519.85  1562.57  1594.95  1697.33
                             1759.74  1782.32  1897.97  1919.08  1968.88
                             2051.58  2070.49  2174.84  2219.85  2241.57
                             2399.99  4582.47  4626.45  4649.99  4687.19

 Zero-point correction=                           0.108768 (Hartree/Particle)
 Thermal correction to Energy=                    0.118317
 Thermal correction to Enthalpy=                  0.119261
 Thermal correction to Gibbs Free Energy=         0.072740
 Sum of electronic and zero-point Energies=          -1251.094645
 Sum of electronic and thermal Energies=             -1251.085097
 Sum of electronic and thermal Enthalpies=           -1251.084152
 Sum of electronic and thermal Free Energies=        -1251.130673

                     E (Thermal)             CV                S
                      KCal/Mol        Cal/Mol-Kelvin    Cal/Mol-Kelvin
 Total                   74.245             37.238             97.911
 Electronic               0.000              0.000              0.000
 Translational            0.889              2.981             41.843
 Rotational               0.889              2.981             31.686
 Vibrational             72.468             31.277             24.382
 Vibration     1          0.597              1.971              4.277
 Vibration     2          0.605              1.944              3.333
 Vibration     3          0.625              1.880              2.444
 Vibration     4          0.631              1.860              2.273
 Vibration     5          0.669              1.743              1.651
 Vibration     6          0.694              1.670              1.405
 Vibration     7          0.710              1.625              1.283
 Vibration     8          0.765              1.473              0.967
 Vibration     9          0.765              1.472              0.966
 Vibration    10          0.829              1.311              0.731
 Vibration    11          0.854              1.253              0.662
 Vibration    12          0.876              1.205              0.609
 Vibration    13          0.961              1.027              0.445

                           ! Non-Optimized Parameters !
 Normal termination of Gaussian 16 at Wed May 17 17:13:38 2023.
