 Gaussian 16, Revision A.03,
 Gaussian 16:  ES64L-G16RevA.03 25-Dec-2016

 -----------------------------
 # opt freq b3lyp/6-31g(2df,p)
 -----------------------------

 -------------------
 Title Card Required
 -------------------
 Symbolic Z-matrix:
 Charge =  0 Multiplicity = 1

 SCF Done:  E(RB3LYP) =  -921.825671859     A.U. after   22 cycles
 SCF Done:  E(RB3LYP) =  -921.866722778     A.U. after   15 cycles
 SCF Done:  E(RB3LYP) =  -921.881408051     A.U. after   15 cycles
 SCF Done:  E(RB3LYP) =  -921.894614895     A.U. after   15 cycles
 SCF Done:  E(RB3LYP) =  -921.894915212     A.U. after   15 cycles
 SCF Done:  E(RB3LYP) =  -921.902765925     A.U. after   17 cycles
 SCF Done:  E(RB3LYP) =  -921.910857946     A.U. after   14 cycles
 SCF Done:  E(RB3LYP) =  -921.918693831     A.U. after   15 cycles
 SCF Done:  E(RB3LYP) =  -921.924445310     A.U. after   15 cycles
 SCF Done:  E(RB3LYP) =  -921.926779814     A.U. after   16 cycles
 SCF Done:  E(RB3LYP) =  -921.953871123     A.U. after   12 cycles
 SCF Done:  E(RB3LYP) =  -921.953497224     A.U. after   13 cycles
 SCF Done:  E(RB3LYP) =  -921.954040360     A.U. after   11 cycles
 SCF Done:  E(RB3LYP) =  -921.954039619     A.U. after    8 cycles
 SCF Done:  E(RB3LYP) =  -921.954050613     A.U. after   10 cycles
 SCF Done:  E(RB3LYP) =  -921.954046576     A.U. after   10 cycles
 SCF Done:  E(RB3LYP) =  -921.954064814     A.U. after   10 cycles
 SCF Done:  E(RB3LYP) =  -921.954064471     A.U. after    7 cycles
 SCF Done:  E(RB3LYP) =  -921.954065049     A.U. after    7 cycles
 Optimization completed.
    -- Stationary point found.
 Normal termination of Gaussian 16 at Fri May 19 04:44:26 2023.

 ----------------------------------------------------------------------
 #N Geom=AllCheck Guess=TCheck SCRF=Check GenChk RB3LYP/6-31G(2df,p) Fr
 eq
 ----------------------------------------------------------------------

 Structure from the checkpoint file:  "C[N][N]C1dCCdCqNdCNNNNdNNCrCdCCdC1.chk"
 -------------------
 Title Card Required
 -------------------
 Charge =  0 Multiplicity = 1

                         Standard orientation:
 ---------------------------------------------------------------------
 Center     Atomic      Atomic             Coordinates (Angstroms)
 Number     Number       Type             X           Y           Z
 ---------------------------------------------------------------------
      1          6           0       -6.430456    2.958124   -0.111087
      2          7           0       -5.294940    2.084040   -0.396262
      3          7           0       -5.110207    1.236002    0.498415
      4          6           0       -3.961563    0.407174    0.334719
      5          6           0       -2.810195    0.926021   -0.148709
      6          6           0       -1.488673    0.332186   -0.215820
      7          6           0       -1.130705   -0.898530   -0.656296
      8          7           0        0.209405   -1.281642   -0.765280
      9          6           0        0.987083   -1.141826    0.235189
     10          7           0        2.312717   -1.483759    0.169225
     11          7           0        3.153408   -0.996936    1.172775
     12          7           0        3.772802    0.222583    0.807300
     13          7           0        4.952790    0.009074    0.087619
     14          7           0        5.799117    0.897122    0.314672
     15          7           0        6.966942    0.717381   -0.354168
     16          6           0        7.710225    1.939794   -0.610297
     17          6           0       -2.038664   -1.894207   -1.269792
     18          6           0       -3.153595   -2.412162   -0.754146
     19          6           0       -3.778120   -2.098287    0.540556
     20          6           0       -4.143280   -0.895277    0.992313
     21          1           0       -7.128597    2.903268   -0.953930
     22          1           0       -6.064443    3.990691   -0.066737
     23          1           0       -6.936091    2.694977    0.824086
     24          1           0       -2.867479    1.977321   -0.426912
     25          1           0       -0.670181    1.014205    0.009349
     26          1           0        0.678360   -0.802857    1.228640
     27          1           0        2.706158   -1.572929   -0.762484
     28          1           0        3.866690   -1.703471    1.340591
     29          1           0        3.940639    0.786101    1.640092
     30          1           0        6.886032    0.071926   -1.136702
     31          1           0        7.788877    2.501408    0.322855
     32          1           0        7.244267    2.585170   -1.368173
     33          1           0        8.715756    1.671404   -0.942852
     34          1           0       -1.668669   -2.281927   -2.216753
     35          1           0       -3.650720   -3.199590   -1.321080
     36          1           0       -4.044023   -2.964180    1.146358
     37          1           0       -4.703149   -0.836632    1.923804
 ---------------------------------------------------------------------

 SCF Done:  E(RB3LYP) =  -921.954065049     A.U. after    1 cycles

 The electronic state is 1-A.
 Alpha  occ. eigenvalues --  -14.40944 -14.40079 -14.39782 -14.39267 -14.38057
 Alpha  occ. eigenvalues --  -14.37799 -14.35894 -14.35677 -14.30867 -10.25376
 Alpha  occ. eigenvalues --  -10.22722 -10.21456 -10.19998 -10.19333 -10.18066
 Alpha  occ. eigenvalues --  -10.17970 -10.17915 -10.17765 -10.17692 -10.17033
 Alpha  occ. eigenvalues --   -1.09973  -1.03938  -1.01358  -0.96224  -0.92301
 Alpha  occ. eigenvalues --   -0.86845  -0.82701  -0.79098  -0.77508  -0.75164
 Alpha  occ. eigenvalues --   -0.73449  -0.70132  -0.67673  -0.66357  -0.64086
 Alpha  occ. eigenvalues --   -0.61508  -0.59557  -0.57706  -0.56800  -0.54686
 Alpha  occ. eigenvalues --   -0.54184  -0.52811  -0.49452  -0.48056  -0.47753
 Alpha  occ. eigenvalues --   -0.47381  -0.46504  -0.45800  -0.44965  -0.44428
 Alpha  occ. eigenvalues --   -0.43488  -0.42231  -0.41913  -0.41677  -0.40765
 Alpha  occ. eigenvalues --   -0.40019  -0.38882  -0.37729  -0.36729  -0.34732
 Alpha  occ. eigenvalues --   -0.33454  -0.32923  -0.31625  -0.31406  -0.29520
 Alpha  occ. eigenvalues --   -0.28240  -0.27242  -0.26158  -0.25118  -0.23133
 Alpha  occ. eigenvalues --   -0.22627  -0.21001  -0.18562
 Alpha virt. eigenvalues --   -0.06197  -0.02882  -0.00711   0.02074   0.04952
 Alpha virt. eigenvalues --    0.05808   0.07723   0.09431   0.10622   0.11048
 Alpha virt. eigenvalues --    0.11413   0.12200   0.12365   0.13129   0.13961

 Mulliken charges:
               1
     1  C   -0.287432
     2  N   -0.116619
     3  N   -0.199922
     4  C    0.243821
     5  C   -0.133860
     6  C   -0.181637
     7  C    0.245359
     8  N   -0.318042
     9  C    0.145091
    10  N   -0.249242
    11  N   -0.248030
    12  N   -0.193525
    13  N   -0.119154
    14  N   -0.077479
    15  N   -0.191527
    16  C   -0.302862
    17  C   -0.127547
    18  C   -0.103025
    19  C   -0.118892
    20  C   -0.126330
    21  H    0.131164
    22  H    0.130422
    23  H    0.118806
    24  H    0.096633
    25  H    0.084384
    26  H    0.115972
    27  H    0.253634
    28  H    0.245070
    29  H    0.244678
    30  H    0.235127
    31  H    0.150284
    32  H    0.124609
    33  H    0.133964
    34  H    0.104702
    35  H    0.095000
    36  H    0.093776
    37  H    0.102627
 Sum of Mulliken charges =   0.00000

 Dipole moment (field-independent basis, Debye):
    X=              5.5502    Y=              0.3902    Z=              0.2801  Tot=              5.5709
 Quadrupole moment (field-independent basis, Debye-Ang):
   XX=            -85.6131   YY=           -108.6813   ZZ=           -114.3916
   XY=              2.3170   XZ=             -6.1558   YZ=             -0.2687

  Exact polarizability: 350.517 -20.866 196.682 -19.696   3.130 134.544
 Approx polarizability: 437.170 -28.491 309.343 -35.898   9.920 226.613

                      1                      2                      3
                      A                      A                      A
 Frequencies --     14.9695                23.6778                38.3870
 Red. masses --      5.1456                 4.6635                 4.6001
 Frc consts  --      0.0007                 0.0015                 0.0040
 IR Inten    --      0.3941                 0.1747                 0.8842

                      4                      5                      6
                      A                      A                      A
 Frequencies --     44.0960                62.9168                74.2127
 Red. masses --      4.4647                 2.6952                 4.4869
 Frc consts  --      0.0051                 0.0063                 0.0146
 IR Inten    --      0.5766                 3.1347                 0.6764

                      7                      8                      9
                      A                      A                      A
 Frequencies --     96.1027               111.5682               136.1997
 Red. masses --      5.1152                 2.4983                 1.8434
 Frc consts  --      0.0278                 0.0183                 0.0201
 IR Inten    --      0.2973                 2.0364                 0.4711

                     10                     11                     12
                      A                      A                      A
 Frequencies --    146.0750               161.9214               177.1881
 Red. masses --      3.1577                 1.5338                 3.0398
 Frc consts  --      0.0397                 0.0237                 0.0562
 IR Inten    --      1.2779                12.7566                 0.6589

                     13                     14                     15
                      A                      A                      A
 Frequencies --    197.2008               202.3419               216.8138
 Red. masses --      3.6641                 2.4337                 4.5942
 Frc consts  --      0.0840                 0.0587                 0.1272
 IR Inten    --      1.0464                 4.1373                 2.4757

                     16                     17                     18
                      A                      A                      A
 Frequencies --    227.2437               259.2023               276.4981
 Red. masses --      4.3627                 4.1755                 2.5122
 Frc consts  --      0.1327                 0.1653                 0.1132
 IR Inten    --     11.0379                 2.1117                 1.3680

                     19                     20                     21
                      A                      A                      A
 Frequencies --    296.3385               317.8608               344.2240
 Red. masses --      4.0666                 3.8795                 4.1034
 Frc consts  --      0.2104                 0.2309                 0.2865
 IR Inten    --     22.9758                13.1388                10.9904

                     22                     23                     24
                      A                      A                      A
 Frequencies --    370.6527               378.3349               425.6941
 Red. masses --      2.9345                 3.3013                 5.1485
 Frc consts  --      0.2375                 0.2784                 0.5497
 IR Inten    --     17.4531                 5.3212                 1.6130

                     25                     26                     27
                      A                      A                      A
 Frequencies --    430.9625               458.9209               474.0174
 Red. masses --      3.7509                 4.0436                 4.0716
 Frc consts  --      0.4105                 0.5018                 0.5390
 IR Inten    --     63.6284                 9.8631                11.7379

                     28                     29                     30
                      A                      A                      A
 Frequencies --    480.4567               551.5032               568.3925
 Red. masses --      4.4435                 4.3445                 2.6447
 Frc consts  --      0.6043                 0.7785                 0.5034
 IR Inten    --     17.2256                23.6390                87.6227

                     31                     32                     33
                      A                      A                      A
 Frequencies --    590.5642               594.1233               659.3880
 Red. masses --      2.7199                 2.3457                 2.8987
 Frc consts  --      0.5589                 0.4878                 0.7426
 IR Inten    --     86.5614               101.1826                18.1077

                     34                     35                     36
                      A                      A                      A
 Frequencies --    682.7955               685.2361               709.8265
 Red. masses --      2.3797                 2.5727                 3.7451
 Frc consts  --      0.6537                 0.7117                 1.1118
 IR Inten    --     58.0539                18.7156                31.5926

                     37                     38                     39
                      A                      A                      A
 Frequencies --    730.9795               788.4561               797.0825
 Red. masses --      1.4373                 3.0456                 2.3917
 Frc consts  --      0.4525                 1.1155                 0.8953
 IR Inten    --    108.8556               143.7332                15.2001

                     40                     41                     42
                      A                      A                      A
 Frequencies --    812.7684               833.2029               853.0583
 Red. masses --      2.4319                 3.3259                 4.2806
 Frc consts  --      0.9465                 1.3604                 1.8353
 IR Inten    --      7.9392                27.3280                 4.7028

                     43                     44                     45
                      A                      A                      A
 Frequencies --    870.9594               917.3791               924.8397
 Red. masses --      1.4335                 1.6199                 2.2792
 Frc consts  --      0.6407                 0.8032                 1.1486
 IR Inten    --     13.7422                64.7021                35.8041

                     46                     47                     48
                      A                      A                      A
 Frequencies --    958.7731               960.6451               987.9440
 Red. masses --      3.1390                 2.2427                 2.1558
 Frc consts  --      1.7001                 1.2194                 1.2397
 IR Inten    --      1.5980                 8.8444                 1.5375

                     49                     50                     51
                      A                      A                      A
 Frequencies --    998.4365              1002.5040              1007.7531
 Red. masses --      1.3171                 1.7666                 2.0134
 Frc consts  --      0.7736                 1.0461                 1.2047
 IR Inten    --      3.6615                 2.2850                28.6646

                     52                     53                     54
                      A                      A                      A
 Frequencies --   1012.9016              1079.6071              1084.9914
 Red. masses --      1.4993                 3.4859                 1.4829
 Frc consts  --      0.9063                 2.3938                 1.0286
 IR Inten    --     12.9398               158.6268                 4.9080

                     55                     56                     57
                      A                      A                      A
 Frequencies --   1126.2091              1133.9662              1138.5570
 Red. masses --      2.6871                 2.7591                 1.8883
 Frc consts  --      2.0081                 2.0904                 1.4422
 IR Inten    --      8.7639                18.7095                38.4060

                     58                     59                     60
                      A                      A                      A
 Frequencies --   1146.1240              1177.2252              1185.0220
 Red. masses --      1.3926                 2.8528                 2.2644
 Frc consts  --      1.0778                 2.3294                 1.8735
 IR Inten    --     85.6939               175.1740                14.6588

                     61                     62                     63
                      A                      A                      A
 Frequencies --   1188.0425              1196.3998              1237.8562
 Red. masses --      3.3737                 3.7952                 1.1294
 Frc consts  --      2.8055                 3.2007                 1.0196
 IR Inten    --     54.5158                54.8268                 3.3085

                     64                     65                     66
                      A                      A                      A
 Frequencies --   1245.2017              1285.6941              1290.6949
 Red. masses --      1.1182                 2.9074                 1.8656
 Frc consts  --      1.0215                 2.8316                 1.8311
 IR Inten    --      0.1662               104.3036               202.8399

                     67                     68                     69
                      A                      A                      A
 Frequencies --   1346.8301              1352.9653              1376.1673
 Red. masses --      1.2460                 1.3808                 1.5598
 Frc consts  --      1.3316                 1.4892                 1.7404
 IR Inten    --      0.3700                15.6714                 2.2746

                     70                     71                     72
                      A                      A                      A
 Frequencies --   1406.2363              1422.0081              1439.9463
 Red. masses --      1.2238                 1.4931                 1.2030
 Frc consts  --      1.4259                 1.7789                 1.4697
 IR Inten    --     23.4239                 2.8281                 9.6677

                     73                     74                     75
                      A                      A                      A
 Frequencies --   1450.8992              1453.2374              1465.1243
 Red. masses --      1.2928                 1.5828                 1.5217
 Frc consts  --      1.6035                 1.9695                 1.9245
 IR Inten    --      0.0774                 7.2929                 0.9185

                     76                     77                     78
                      A                      A                      A
 Frequencies --   1470.2861              1472.7145              1484.4709
 Red. masses --      1.0688                 1.0593                 1.2903
 Frc consts  --      1.3612                 1.3536                 1.6753
 IR Inten    --      8.4116                 6.9071                 4.1466

                     79                     80                     81
                      A                      A                      A
 Frequencies --   1490.1369              1519.1485              1548.1407
 Red. masses --      1.0932                 1.1001                 1.3433
 Frc consts  --      1.4302                 1.4958                 1.8968
 IR Inten    --     31.0631                19.3275                 7.1498

                     82                     83                     84
                      A                      A                      A
 Frequencies --   1584.3674              1594.1070              1641.8965
 Red. masses --      6.8409                 6.4238                 7.5487
 Frc consts  --     10.1176                 9.6178                11.9899
 IR Inten    --    237.2354                35.8011               183.3890

                     85                     86                     87
                      A                      A                      A
 Frequencies --   1660.4649              1710.9446              1727.7837
 Red. masses --      7.1633                 6.4300                 7.0251
 Frc consts  --     11.6365                11.0900                12.3561
 IR Inten    --     26.7644               168.0638               605.4906

                     88                     89                     90
                      A                      A                      A
 Frequencies --   1737.1769              3004.8595              3014.0645
 Red. masses --      8.9524                 1.0500                 1.0305
 Frc consts  --     15.9176                 5.5857                 5.5158
 IR Inten    --    109.8724                80.4231                58.0766

                     91                     92                     93
                      A                      A                      A
 Frequencies --   3085.8388              3087.7112              3097.2919
 Red. masses --      1.1002                 1.0884                 1.0843
 Frc consts  --      6.1724                 6.1138                 6.1289
 IR Inten    --     15.6547                11.3745                25.3564

                     94                     95                     96
                      A                      A                      A
 Frequencies --   3106.1669              3113.2970              3123.6498
 Red. masses --      1.1059                 1.0824                 1.0831
 Frc consts  --      6.2867                 6.1814                 6.2267
 IR Inten    --     20.0773                 8.6284                16.0246

                     97                     98                     99
                      A                      A                      A
 Frequencies --   3126.5612              3139.6741              3140.1160
 Red. masses --      1.0840                 1.0864                 1.1032
 Frc consts  --      6.2433                 6.3096                 6.4092
 IR Inten    --     35.6681                10.6139                10.4498

                    100                    101                    102
                      A                      A                      A
 Frequencies --   3149.1188              3152.0963              3463.7060
 Red. masses --      1.0912                 1.0920                 1.0751
 Frc consts  --      6.3757                 6.3924                 7.5996
 IR Inten    --     29.6984                20.3213                 3.7368

                    103                    104                    105
                      A                      A                      A
 Frequencies --   3470.3854              3485.4107              3526.5155
 Red. masses --      1.0742                 1.0741                 1.0751
 Frc consts  --      7.6224                 7.6881                 7.8778
 IR Inten    --      9.9394                 1.4374                44.2787

 - Thermochemistry -
 -------------------
 Temperature   298.150 Kelvin.  Pressure   1.00000 Atm.
 Atom     1 has atomic number  6 and mass  12.00000

 Molecular mass:   275.16069 amu.
 Principal axes and moments of inertia in atomic units:
                           1         2         3
     Eigenvalues --  2650.65329********************
           X            0.99999   0.00140  -0.00302
           Y           -0.00141   0.99999  -0.00518
           Z            0.00301   0.00519   0.99998
 This molecule is an asymmetric top.
 Rotational symmetry number  1.
 Warning -- assumption of classical behavior for rotation
           may cause significant error
 Rotational temperatures (Kelvin)      0.03268     0.00452     0.00414
 Rotational constants (GHZ):           0.68087     0.09427     0.08632
 Zero-point vibrational energy     778175.0 (Joules/Mol)
                                  185.98829 (Kcal/Mol)
 Warning -- explicit consideration of  32 degrees of freedom as
           vibrations may cause significant error
 Vibrational temperatures:     21.54    34.07    55.23    63.44    90.52
          (Kelvin)            106.78   138.27   160.52   195.96   210.17
                              232.97   254.93   283.73   291.12   311.95
                              326.95   372.93   397.82   426.36   457.33
                              495.26   533.29   544.34   612.48   620.06
                              660.28   682.01   691.27   793.49   817.79
                              849.69   854.81   948.71   982.39   985.90
                             1021.28  1051.72  1134.41  1146.82  1169.39
                             1198.79  1227.36  1253.12  1319.90  1330.64
                             1379.46  1382.15  1421.43  1436.53  1442.38
                             1449.93  1457.34  1553.31  1561.06  1620.36
                             1631.52  1638.13  1649.02  1693.76  1704.98
                             1709.33  1721.35  1781.00  1791.57  1849.83
                             1857.02  1937.79  1946.62  1980.00  2023.26
                             2045.95  2071.76  2087.52  2090.88  2107.99
                             2115.41  2118.91  2135.82  2143.97  2185.72
                             2227.43  2279.55  2293.56  2362.32  2389.04
                             2461.67  2485.90  2499.41  4323.32  4336.57
                             4439.83  4442.53  4456.31  4469.08  4479.34
                             4494.24  4498.42  4517.29  4517.93  4530.88
                             4535.16  4983.50  4993.11  5014.73  5073.87

 Zero-point correction=                           0.296391 (Hartree/Particle)
 Thermal correction to Energy=                    0.317031
 Thermal correction to Enthalpy=                  0.317976
 Thermal correction to Gibbs Free Energy=         0.244076
 Sum of electronic and zero-point Energies=           -921.657674
 Sum of electronic and thermal Energies=              -921.637034
 Sum of electronic and thermal Enthalpies=            -921.636090
 Sum of electronic and thermal Free Energies=         -921.709989

                     E (Thermal)             CV                S
                      KCal/Mol        Cal/Mol-Kelvin    Cal/Mol-Kelvin
 Total                  198.940             75.443            155.534
 Electronic               0.000              0.000              0.000
 Translational            0.889              2.981             42.735
 Rotational               0.889              2.981             35.316
 Vibrational            197.163             69.482             77.483
 Vibration     1          0.593              1.986              7.210
 Vibration     2          0.593              1.985              6.299
 Vibration     3          0.594              1.982              5.341
 Vibration     4          0.595              1.980              5.066
 Vibration     5          0.597              1.972              4.364
 Vibration     6          0.599              1.966              4.038
 Vibration     7          0.603              1.952              3.532
 Vibration     8          0.607              1.940              3.241
 Vibration     9          0.614              1.917              2.857
 Vibration    10          0.617              1.907              2.723
 Vibration    11          0.622              1.889              2.527
 Vibration    12          0.628              1.870              2.358
 Vibration    13          0.637              1.844              2.159
 Vibration    14          0.639              1.837              2.112
 Vibration    15          0.646              1.815              1.986
 Vibration    16          0.651              1.799              1.901
 Vibration    17          0.668              1.747              1.667
 Vibration    18          0.678              1.717              1.555
 Vibration    19          0.690              1.681              1.437
 Vibration    20          0.704              1.639              1.321
 Vibration    21          0.723              1.587              1.193
 Vibration    22          0.743              1.532              1.077
 Vibration    23          0.749              1.516              1.046
 Vibration    24          0.788              1.414              0.873
 Vibration    25          0.792              1.403              0.856
 Vibration    26          0.817              1.341              0.769
 Vibration    27          0.831              1.308              0.726
 Vibration    28          0.837              1.293              0.709
 Vibration    29          0.907              1.136              0.541
 Vibration    30          0.924              1.100              0.507
 Vibration    31          0.948              1.052              0.466
 Vibration    32          0.952              1.044              0.460

 Optimization completed.
    -- Stationary point found.
 Normal termination of Gaussian 16 at Fri May 19 09:05:14 2023.
