 Gaussian 16, Revision A.03,
 Gaussian 16:  ES64L-G16RevA.03 25-Dec-2016

 -----------------------------
 # opt freq b3lyp/6-31g(2df,p)
 -----------------------------

 -------------------
 Title Card Required
 -------------------
 Symbolic Z-matrix:
 Charge =  0 Multiplicity = 1

 SCF Done:  E(RB3LYP) =  -915.742813099     A.U. after   33 cycles
 SCF Done:  E(RB3LYP) =  -915.792711930     A.U. after   18 cycles
 SCF Done:  E(RB3LYP) =  -915.848028298     A.U. after   15 cycles
 SCF Done:  E(RB3LYP) =  -915.878550288     A.U. after   15 cycles
 SCF Done:  E(RB3LYP) =  -915.905388639     A.U. after   14 cycles
 SCF Done:  E(RB3LYP) =  -915.916076720     A.U. after   14 cycles
 SCF Done:  E(RB3LYP) =  -915.916803180     A.U. after   11 cycles
 SCF Done:  E(RB3LYP) =  -915.921435456     A.U. after   14 cycles
 SCF Done:  E(RB3LYP) =  -915.923399472     A.U. after   14 cycles
 SCF Done:  E(RB3LYP) =  -915.925707187     A.U. after   13 cycles
 SCF Done:  E(RB3LYP) =  -916.050203878     A.U. after   11 cycles
 SCF Done:  E(RB3LYP) =  -916.050209306     A.U. after   11 cycles
 SCF Done:  E(RB3LYP) =  -916.050210160     A.U. after   11 cycles
 SCF Done:  E(RB3LYP) =  -916.050209748     A.U. after   11 cycles
 SCF Done:  E(RB3LYP) =  -916.050210521     A.U. after   11 cycles
 SCF Done:  E(RB3LYP) =  -916.050211770     A.U. after   10 cycles
 SCF Done:  E(RB3LYP) =  -916.050211793     A.U. after    7 cycles
 SCF Done:  E(RB3LYP) =  -916.050211834     A.U. after    6 cycles
 SCF Done:  E(RB3LYP) =  -916.050211885     A.U. after    6 cycles
 Optimization completed.
    -- Stationary point found.
 Normal termination of Gaussian 16 at Sat May 20 15:32:54 2023.

 ----------------------------------------------------------------------
 #N Geom=AllCheck Guess=TCheck SCRF=Check GenChk RB3LYP/6-31G(2df,p) Fr
 eq
 ----------------------------------------------------------------------

 Structure from the checkpoint file:  "C[SH]1CCNCqCdCCdOrC1dO.chk"
 -------------------
 Title Card Required
 -------------------
 Charge =  0 Multiplicity = 1

                         Standard orientation:
 ---------------------------------------------------------------------
 Center     Atomic      Atomic             Coordinates (Angstroms)
 Number     Number       Type             X           Y           Z
 ---------------------------------------------------------------------
      1          6           0        3.504248    0.041095    1.530618
      2         16           0        3.080748   -0.275179   -0.211593
      3          6           0        2.390663    1.345269   -0.702404
      4          6           0        1.016534    1.718965   -0.115961
      5          7           0       -0.140015    0.949379   -0.535346
      6          6           0       -0.446438   -0.322968    0.077568
      7          6           0       -1.925333   -0.535862    0.307112
      8          6           0       -2.885901    0.368148    0.095648
      9          6           0       -4.296961    0.041166    0.343477
     10          8           0       -5.217635    0.810283    0.185209
     11          6           0        0.081305   -1.562210   -0.690184
     12          8           0       -0.047278   -2.689053   -0.297965
     13          1           0        4.210138    0.871394    1.612937
     14          1           0        3.981519   -0.867977    1.901374
     15          1           0        2.620808    0.243960    2.140388
     16          1           0        0.555826   -1.320590   -1.667633
     17          1           0        2.329573    1.301962   -1.795126
     18          1           0        3.120906    2.124452   -0.454254
     19          1           0        0.834837    2.769893   -0.381898
     20          1           0        1.057675    1.692682    0.978750
     21          1           0       -0.270610    0.943693   -1.539145
     22          1           0        0.045786   -0.368843    1.058521
     23          1           0       -2.182684   -1.533797    0.658308
     24          1           0       -2.654091    1.368970   -0.253297
     25          1           0       -4.470926   -1.000053    0.700784
 ---------------------------------------------------------------------

 SCF Done:  E(RB3LYP) =  -916.050211885     A.U. after    1 cycles

 The electronic state is 1-A.
 Alpha  occ. eigenvalues --  -88.88151 -19.15058 -19.12723 -14.33927 -10.28152
 Alpha  occ. eigenvalues --  -10.26208 -10.24441 -10.23488 -10.22721 -10.22280
 Alpha  occ. eigenvalues --  -10.21573 -10.19287  -7.94457  -5.90945  -5.90589
 Alpha  occ. eigenvalues --   -5.89983  -1.05968  -1.03296  -0.93394  -0.82374
 Alpha  occ. eigenvalues --   -0.80290  -0.75553  -0.72011  -0.66231  -0.62865
 Alpha  occ. eigenvalues --   -0.60081  -0.58521  -0.56710  -0.51585  -0.49945
 Alpha  occ. eigenvalues --   -0.47207  -0.46074  -0.45726  -0.45202  -0.44086
 Alpha  occ. eigenvalues --   -0.43955  -0.42618  -0.41674  -0.40956  -0.40244
 Alpha  occ. eigenvalues --   -0.38885  -0.38098  -0.37067  -0.35954  -0.32138
 Alpha  occ. eigenvalues --   -0.29210  -0.27179  -0.24661  -0.24103  -0.22779
 Alpha virt. eigenvalues --   -0.05796  -0.02704   0.02778   0.05401   0.06667
 Alpha virt. eigenvalues --    0.06807   0.07827   0.10270   0.11168   0.11400
 Alpha virt. eigenvalues --    0.12684   0.13260   0.13713   0.15641   0.16210

 Mulliken charges:
               1
     1  C   -0.378879
     2  S   -0.131284
     3  C   -0.196694
     4  C   -0.168498
     5  N   -0.283810
     6  C   -0.101825
     7  C   -0.036312
     8  C   -0.166694
     9  C    0.151362
    10  O   -0.277549
    11  C    0.161115
    12  O   -0.248643
    13  H    0.144156
    14  H    0.159136
    15  H    0.140532
    16  H    0.083093
    17  H    0.127273
    18  H    0.124847
    19  H    0.114464
    20  H    0.118094
    21  H    0.222876
    22  H    0.133014
    23  H    0.126979
    24  H    0.114281
    25  H    0.068965
 Sum of Mulliken charges =  -0.00000

 Dipole moment (field-independent basis, Debye):
    X=              4.4048    Y=              2.0176    Z=              0.3594  Tot=              4.8582
 Quadrupole moment (field-independent basis, Debye-Ang):
   XX=           -101.5034   YY=            -85.2271   ZZ=            -72.4579
   XY=             11.7617   XZ=              4.4043   YZ=             -2.5082

  Exact polarizability: 161.748  -9.598 116.172   1.016  -6.493  91.047
 Approx polarizability: 211.703 -28.702 191.741   5.644 -14.368 148.568

                      1                      2                      3
                      A                      A                      A
 Frequencies --     17.2925                31.1058                53.0156
 Red. masses --      6.3256                 3.2464                 5.9605
 Frc consts  --      0.0011                 0.0019                 0.0099
 IR Inten    --      0.7264                 0.5532                 1.3237

                      4                      5                      6
                      A                      A                      A
 Frequencies --     76.9540                98.0057               105.1953
 Red. masses --      6.8643                 4.4212                 3.2231
 Frc consts  --      0.0240                 0.0250                 0.0210
 IR Inten    --      5.6180                 5.3051                 2.9519

                      7                      8                      9
                      A                      A                      A
 Frequencies --    140.7815               164.4883               173.6826
 Red. masses --      2.6142                 1.2825                 3.1743
 Frc consts  --      0.0305                 0.0204                 0.0564
 IR Inten    --      5.1570                 3.8809                 0.1932

                     10                     11                     12
                      A                      A                      A
 Frequencies --    199.9428               231.3064               265.8653
 Red. masses --      3.2851                 2.2830                 4.6809
 Frc consts  --      0.0774                 0.0720                 0.1949
 IR Inten    --      2.3480                11.0214                 4.0487

                     13                     14                     15
                      A                      A                      A
 Frequencies --    278.2011               297.9410               334.0509
 Red. masses --      2.7597                 3.4133                 1.9483
 Frc consts  --      0.1258                 0.1785                 0.1281
 IR Inten    --      3.9221                 6.1684                 8.0254

                     16                     17                     18
                      A                      A                      A
 Frequencies --    417.0785               452.2936               520.6180
 Red. masses --      2.3036                 2.1063                 5.4034
 Frc consts  --      0.2361                 0.2539                 0.8629
 IR Inten    --      8.4026                 4.1434                 4.9540

                     19                     20                     21
                      A                      A                      A
 Frequencies --    545.5069               602.7422               630.5884
 Red. masses --      3.0019                 2.3500                 3.5141
 Frc consts  --      0.5263                 0.5030                 0.8233
 IR Inten    --     84.5373                21.0359                21.9115

                     22                     23                     24
                      A                      A                      A
 Frequencies --    646.3688               717.2469               825.8116
 Red. masses --      3.6884                 5.8956                 1.8443
 Frc consts  --      0.9079                 1.7869                 0.7411
 IR Inten    --      1.3569                 1.3457                 2.7510

                     25                     26                     27
                      A                      A                      A
 Frequencies --    842.7534               881.0161               932.5754
 Red. masses --      1.4585                 2.4471                 2.0663
 Frc consts  --      0.6103                 1.1191                 1.0588
 IR Inten    --      2.9273                 4.4810                 2.6281

                     28                     29                     30
                      A                      A                      A
 Frequencies --    957.4121               965.2271               993.7694
 Red. masses --      1.4030                 1.2025                 3.2591
 Frc consts  --      0.7577                 0.6601                 1.8963
 IR Inten    --      0.6355                 4.9624                35.2369

                     31                     32                     33
                      A                      A                      A
 Frequencies --   1014.8578              1030.9927              1050.9482
 Red. masses --      2.0010                 1.6127                 1.4246
 Frc consts  --      1.2142                 1.0100                 0.9271
 IR Inten    --     19.7598                12.6053                11.6683

                     34                     35                     36
                      A                      A                      A
 Frequencies --   1071.7534              1101.8211              1136.2421
 Red. masses --      1.7378                 2.2576                 2.8246
 Frc consts  --      1.1761                 1.6148                 2.1486
 IR Inten    --     18.8592                 1.5223               120.2752

                     37                     38                     39
                      A                      A                      A
 Frequencies --   1186.5624              1203.1788              1212.0496
 Red. masses --      2.1739                 1.2855                 1.4574
 Frc consts  --      1.8033                 1.0964                 1.2615
 IR Inten    --     45.9058                 2.1576                 0.8071

                     40                     41                     42
                      A                      A                      A
 Frequencies --   1238.3468              1264.6214              1306.2668
 Red. masses --      1.3996                 1.4388                 1.3945
 Frc consts  --      1.2646                 1.3557                 1.4020
 IR Inten    --     11.6772                 8.1004                 7.1636

                     43                     44                     45
                      A                      A                      A
 Frequencies --   1319.2975              1350.3954              1356.1773
 Red. masses --      1.3050                 1.1674                 1.1692
 Frc consts  --      1.3383                 1.2543                 1.2670
 IR Inten    --     17.4303                11.3937                 4.8436

                     46                     47                     48
                      A                      A                      A
 Frequencies --   1389.3467              1396.6221              1426.2915
 Red. masses --      1.2167                 1.2601                 1.2089
 Frc consts  --      1.3838                 1.4482                 1.4489
 IR Inten    --     43.9885                 1.2144                 1.6974

                     49                     50                     51
                      A                      A                      A
 Frequencies --   1446.4316              1465.0748              1477.6531
 Red. masses --      1.0843                 1.0621                 1.0785
 Frc consts  --      1.3366                 1.3432                 1.3875
 IR Inten    --      7.1601                 4.7434                 6.5312

                     52                     53                     54
                      A                      A                      A
 Frequencies --   1480.6345              1514.4016              1695.6602
 Red. masses --      1.0570                 1.3061                 6.3572
 Frc consts  --      1.3652                 1.7649                10.7694
 IR Inten    --      8.2211                24.3953                72.6660

                     55                     56                     57
                      A                      A                      A
 Frequencies --   1794.1842              1831.0469              2864.9074
 Red. masses --     10.0706                11.1018                 1.0821
 Frc consts  --     19.1002                21.9301                 5.2326
 IR Inten    --    324.8409               134.0519               117.4738

                     58                     59                     60
                      A                      A                      A
 Frequencies --   2878.0093              3006.5307              3025.3921
 Red. masses --      1.0851                 1.0672                 1.0812
 Frc consts  --      5.2955                 5.6838                 5.8308
 IR Inten    --    109.1979                27.6299                 5.5838

                     61                     62                     63
                      A                      A                      A
 Frequencies --   3033.0747              3042.7200              3065.4403
 Red. masses --      1.0603                 1.0310                 1.0959
 Frc consts  --      5.7473                 5.6236                 6.0676
 IR Inten    --     34.5056                18.4778                14.6579

                     64                     65                     66
                      A                      A                      A
 Frequencies --   3088.2826              3123.4706              3143.5958
 Red. masses --      1.1021                 1.1068                 1.1025
 Frc consts  --      6.1931                 6.3620                 6.4193
 IR Inten    --     19.7521                11.7146                 3.5043

                     67                     68                     69
                      A                      A                      A
 Frequencies --   3154.8691              3196.7032              3557.6591
 Red. masses --      1.0883                 1.0900                 1.0740
 Frc consts  --      6.3819                 6.5626                 8.0087
 IR Inten    --      4.3279                 1.0224                 2.5368

 - Thermochemistry -
 -------------------
 Temperature   298.150 Kelvin.  Pressure   1.00000 Atm.
 Atom     1 has atomic number  6 and mass  12.00000

 Molecular mass:   187.06670 amu.
 Principal axes and moments of inertia in atomic units:
                           1         2         3
     Eigenvalues --  1188.309535352.438936022.15415
           X            0.99985   0.01555   0.00768
           Y           -0.01539   0.99967  -0.02050
           Z           -0.00800   0.02038   0.99976
 This molecule is an asymmetric top.
 Rotational symmetry number  1.
 Warning -- assumption of classical behavior for rotation
           may cause significant error
 Rotational temperatures (Kelvin)      0.07289     0.01618     0.01438
 Rotational constants (GHZ):           1.51875     0.33718     0.29968
 Zero-point vibrational energy     528392.6 (Joules/Mol)
                                  126.28887 (Kcal/Mol)
 Warning -- explicit consideration of  20 degrees of freedom as
           vibrations may cause significant error
 Vibrational temperatures:     24.88    44.75    76.28   110.72   141.01
          (Kelvin)            151.35   202.55   236.66   249.89   287.67
                              332.80   382.52   400.27   428.67   480.62
                              600.08   650.75   749.05   784.86   867.21
                              907.28   929.98  1031.96  1188.16  1212.53
                             1267.59  1341.77  1377.50  1388.75  1429.81
                             1460.15  1483.37  1512.08  1542.01  1585.27
                             1634.80  1707.20  1731.11  1743.87  1781.70
                             1819.51  1879.43  1898.17  1942.92  1951.24
                             1998.96  2009.43  2052.12  2081.09  2107.92
                             2126.01  2130.30  2178.89  2439.68  2581.43
                             2634.47  4121.96  4140.81  4325.73  4352.86
                             4363.92  4377.80  4410.48  4443.35  4493.98
                             4522.93  4539.15  4599.34  5118.68

 Zero-point correction=                           0.201254 (Hartree/Particle)
 Thermal correction to Energy=                    0.215820
 Thermal correction to Enthalpy=                  0.216764
 Thermal correction to Gibbs Free Energy=         0.157143
 Sum of electronic and zero-point Energies=           -915.848958
 Sum of electronic and thermal Energies=              -915.834392
 Sum of electronic and thermal Enthalpies=            -915.833448
 Sum of electronic and thermal Free Energies=         -915.893069

                     E (Thermal)             CV                S
                      KCal/Mol        Cal/Mol-Kelvin    Cal/Mol-Kelvin
 Total                  135.429             50.246            125.483
 Electronic               0.000              0.000              0.000
 Translational            0.889              2.981             41.585
 Rotational               0.889              2.981             32.016
 Vibrational            133.651             44.284             51.883
 Vibration     1          0.593              1.986              6.923
 Vibration     2          0.594              1.983              5.758
 Vibration     3          0.596              1.976              4.702
 Vibration     4          0.599              1.965              3.967
 Vibration     5          0.603              1.951              3.494
 Vibration     6          0.605              1.945              3.356
 Vibration     7          0.615              1.913              2.793
 Vibration     8          0.623              1.886              2.498
 Vibration     9          0.627              1.875              2.395
 Vibration    10          0.638              1.840              2.134
 Vibration    11          0.653              1.793              1.869
 Vibration    12          0.672              1.736              1.623
 Vibration    13          0.679              1.714              1.545
 Vibration    14          0.691              1.678              1.428
 Vibration    15          0.716              1.608              1.240
 Vibration    16          0.780              1.433              0.902
 Vibration    17          0.811              1.356              0.789
 Vibration    18          0.876              1.204              0.609
 Vibration    19          0.901              1.150              0.554
 Vibration    20          0.961              1.026              0.445

 Optimization completed.
    -- Stationary point found.
 Normal termination of Gaussian 16 at Sat May 20 16:27:35 2023.
