 Gaussian 16, Revision A.03,
 Gaussian 16:  ES64L-G16RevA.03 25-Dec-2016

 -----------------------------
 # opt freq b3lyp/6-31g(2df,p)
 -----------------------------

 -------------------
 Title Card Required
 -------------------
 Symbolic Z-matrix:
 Charge =  0 Multiplicity = 1

 SCF Done:  E(RB3LYP) =  -573.685376846     A.U. after   17 cycles
 SCF Done:  E(RB3LYP) =  -573.736363705     A.U. after   15 cycles
 SCF Done:  E(RB3LYP) =  -573.784083796     A.U. after   15 cycles
 SCF Done:  E(RB3LYP) =  -573.801251503     A.U. after   13 cycles
 SCF Done:  E(RB3LYP) =  -573.819852290     A.U. after   14 cycles
 SCF Done:  E(RB3LYP) =  -573.828046323     A.U. after   13 cycles
 SCF Done:  E(RB3LYP) =  -573.835817893     A.U. after   14 cycles
 SCF Done:  E(RB3LYP) =  -573.840467924     A.U. after   13 cycles
 SCF Done:  E(RB3LYP) =  -573.845207749     A.U. after   14 cycles
 SCF Done:  E(RB3LYP) =  -573.848394343     A.U. after   13 cycles
 SCF Done:  E(RB3LYP) =  -573.854088919     A.U. after   12 cycles
 SCF Done:  E(RB3LYP) =  -573.854138132     A.U. after   11 cycles
 SCF Done:  E(RB3LYP) =  -573.854155631     A.U. after    9 cycles
 SCF Done:  E(RB3LYP) =  -573.854161073     A.U. after    8 cycles
 SCF Done:  E(RB3LYP) =  -573.854167447     A.U. after    9 cycles
 SCF Done:  E(RB3LYP) =  -573.854170823     A.U. after    9 cycles
 SCF Done:  E(RB3LYP) =  -573.854172944     A.U. after    9 cycles
 SCF Done:  E(RB3LYP) =  -573.854173358     A.U. after    8 cycles
 SCF Done:  E(RB3LYP) =  -573.854173471     A.U. after    7 cycles
 Optimization completed.
    -- Stationary point found.
 Normal termination of Gaussian 16 at Fri May 19 09:12:46 2023.

 ----------------------------------------------------------------------
 #N Geom=AllCheck Guess=TCheck SCRF=Check GenChk RB3LYP/6-31G(2df,p) Fr
 eq
 ----------------------------------------------------------------------

 Structure from the checkpoint file:  "CC12CdCCdC3NdC3NdC1CdCCC2.chk"
 -------------------
 Title Card Required
 -------------------
 Charge =  0 Multiplicity = 1

                         Standard orientation:
 ---------------------------------------------------------------------
 Center     Atomic      Atomic             Coordinates (Angstroms)
 Number     Number       Type             X           Y           Z
 ---------------------------------------------------------------------
      1          6           0       -1.295999   -0.670273   -1.882544
      2          6           0       -0.679676   -0.611177   -0.461931
      3          6           0        0.681645   -1.244509   -0.473482
      4          6           0        1.434265   -1.699540    0.551961
      5          6           0        2.817081   -1.183637    0.564979
      6          6           0        2.770303    0.116969    0.221027
      7          7           0        3.126439    1.471162   -0.145511
      8          6           0        1.866106    1.124272   -0.045367
      9          7           0        0.611055    1.618769   -0.060901
     10          6           0       -0.477665    0.897123   -0.090094
     11          6           0       -1.697771    1.622424    0.255024
     12          6           0       -2.840432    1.004655    0.594558
     13          6           0       -2.994297   -0.484509    0.641762
     14          6           0       -1.643034   -1.210324    0.586112
     15          1           0       -0.591422   -0.274294   -2.619761
     16          1           0       -2.222337   -0.097836   -1.966308
     17          1           0       -1.502523   -1.712907   -2.143741
     18          1           0        1.250165   -0.932445   -1.348231
     19          1           0        1.012010   -2.169370    1.439411
     20          1           0        3.703910   -1.725271    0.866505
     21          1           0       -1.607931    2.703079    0.288881
     22          1           0       -3.705601    1.604932    0.866032
     23          1           0       -3.640963   -0.798262   -0.191162
     24          1           0       -3.542906   -0.766998    1.548494
     25          1           0       -1.788384   -2.271516    0.359761
     26          1           0       -1.169629   -1.157485    1.572961
 ---------------------------------------------------------------------

 SCF Done:  E(RB3LYP) =  -573.854173471     A.U. after    1 cycles

 The electronic state is 1-A.
 Alpha  occ. eigenvalues --  -14.35093 -14.35016 -10.27230 -10.26497 -10.22427
 Alpha  occ. eigenvalues --  -10.22420 -10.22326 -10.21175 -10.20563 -10.20330
 Alpha  occ. eigenvalues --  -10.19148 -10.18518 -10.17346 -10.17209  -1.01139
 Alpha  occ. eigenvalues --   -0.94324  -0.86004  -0.81694  -0.78184  -0.75874
 Alpha  occ. eigenvalues --   -0.69979  -0.69246  -0.64545  -0.62243  -0.57567
 Alpha  occ. eigenvalues --   -0.56223  -0.54044  -0.50475  -0.48815  -0.47359
 Alpha  occ. eigenvalues --   -0.46095  -0.45669  -0.43505  -0.42899  -0.42506
 Alpha  occ. eigenvalues --   -0.41658  -0.41162  -0.39553  -0.38321  -0.37572
 Alpha  occ. eigenvalues --   -0.36397  -0.36231  -0.33695  -0.32825  -0.30933
 Alpha  occ. eigenvalues --   -0.27783  -0.25958  -0.22932  -0.19742
 Alpha virt. eigenvalues --   -0.09014  -0.01230   0.01475   0.03973   0.07559
 Alpha virt. eigenvalues --    0.09628   0.10176   0.11253   0.11773   0.12901
 Alpha virt. eigenvalues --    0.13583   0.14577   0.15642   0.16321   0.16476

 Mulliken charges:
               1
     1  C   -0.427898
     2  C    0.122852
     3  C   -0.116525
     4  C   -0.144065
     5  C   -0.345936
     6  C    0.310963
     7  N   -0.347601
     8  C    0.380278
     9  N   -0.444272
    10  C    0.307079
    11  C   -0.094816
    12  C   -0.033381
    13  C   -0.289425
    14  C   -0.249588
    15  H    0.130341
    16  H    0.121389
    17  H    0.127752
    18  H    0.093852
    19  H    0.089743
    20  H    0.098439
    21  H    0.118325
    22  H    0.113810
    23  H    0.129581
    24  H    0.120576
    25  H    0.112028
    26  H    0.116499
 Sum of Mulliken charges =  -0.00000

 Dipole moment (field-independent basis, Debye):
    X=             -5.5482    Y=             -1.7338    Z=              0.5142  Tot=              5.8354
 Quadrupole moment (field-independent basis, Debye-Ang):
   XX=            -83.1724   YY=            -85.8518   ZZ=            -79.7174
   XY=             -6.3425   XZ=             -0.2516   YZ=             -0.4816

  Exact polarizability: 200.515   3.189 127.588  -1.206  -7.390  92.739
 Approx polarizability: 342.000  31.401 224.439  -2.566 -21.728 157.190

                      1                      2                      3
                      A                      A                      A
 Frequencies --     71.6872               133.3719               193.9443
 Red. masses --      4.1770                 4.3855                 2.5578
 Frc consts  --      0.0126                 0.0460                 0.0567
 IR Inten    --      0.3693                 0.1119                 0.1694

                      4                      5                      6
                      A                      A                      A
 Frequencies --    204.7948               240.6516               252.8562
 Red. masses --      2.0425                 4.0017                 2.1386
 Frc consts  --      0.0505                 0.1365                 0.0806
 IR Inten    --      0.3195                 0.3253                 0.1083

                      7                      8                      9
                      A                      A                      A
 Frequencies --    256.7550               295.5219               343.4794
 Red. masses --      1.7422                 2.9043                 2.9772
 Frc consts  --      0.0677                 0.1494                 0.2069
 IR Inten    --      0.6942                 1.7685                 1.9213

                     10                     11                     12
                      A                      A                      A
 Frequencies --    356.9610               363.7516               421.6357
 Red. masses --      2.7277                 4.8817                 5.1306
 Frc consts  --      0.2048                 0.3806                 0.5374
 IR Inten    --      1.3321                 3.6968                 1.1015

                     13                     14                     15
                      A                      A                      A
 Frequencies --    435.0487               446.9757               493.5868
 Red. masses --      3.3180                 4.3062                 3.4103
 Frc consts  --      0.3700                 0.5069                 0.4895
 IR Inten    --      0.7676                 1.1688                 3.1430

                     16                     17                     18
                      A                      A                      A
 Frequencies --    561.1199               579.8596               597.5513
 Red. masses --      4.1956                 6.6199                 4.8119
 Frc consts  --      0.7783                 1.3114                 1.0123
 IR Inten    --      5.3054                 3.6419                 3.3348

                     19                     20                     21
                      A                      A                      A
 Frequencies --    658.5248               673.3905               705.1473
 Red. masses --      3.5938                 3.0218                 3.9423
 Frc consts  --      0.9182                 0.8073                 1.1549
 IR Inten    --     10.0903                12.3028                13.1048

                     22                     23                     24
                      A                      A                      A
 Frequencies --    753.4979               768.3346               775.7996
 Red. masses --      1.9727                 2.9860                 1.4213
 Frc consts  --      0.6599                 1.0386                 0.5040
 IR Inten    --      3.5936                15.1040                35.0122

                     25                     26                     27
                      A                      A                      A
 Frequencies --    811.7468               830.3407               894.8353
 Red. masses --      2.1295                 2.5121                 2.7820
 Frc consts  --      0.8267                 1.0205                 1.3125
 IR Inten    --      3.9527                12.0895                 8.2198

                     28                     29                     30
                      A                      A                      A
 Frequencies --    903.1432               906.7543               953.1633
 Red. masses --      5.1131                 4.3206                 1.9347
 Frc consts  --      2.4572                 2.0930                 1.0356
 IR Inten    --      7.0431                56.8413                 5.3330

                     31                     32                     33
                      A                      A                      A
 Frequencies --    973.9980               986.9847              1000.6006
 Red. masses --      1.9279                 1.4648                 1.6115
 Frc consts  --      1.0776                 0.8407                 0.9506
 IR Inten    --      3.0822                11.9519                 3.1741

                     34                     35                     36
                      A                      A                      A
 Frequencies --   1023.6405              1034.0386              1054.8072
 Red. masses --      1.2746                 1.9692                 1.6785
 Frc consts  --      0.7869                 1.2406                 1.1003
 IR Inten    --      2.3289                 6.8535                 2.5121

                     37                     38                     39
                      A                      A                      A
 Frequencies --   1105.5109              1139.5498              1147.1526
 Red. masses --      2.0820                 2.2370                 1.5991
 Frc consts  --      1.4992                 1.7115                 1.2398
 IR Inten    --      2.5229                 4.9261                14.3417

                     40                     41                     42
                      A                      A                      A
 Frequencies --   1194.7104              1215.5314              1242.4823
 Red. masses --      2.0894                 1.5445                 2.1423
 Frc consts  --      1.7571                 1.3445                 1.9485
 IR Inten    --     12.6673                18.2870                12.1329

                     43                     44                     45
                      A                      A                      A
 Frequencies --   1249.7826              1275.6975              1293.3775
 Red. masses --      1.4722                 1.6323                 1.6065
 Frc consts  --      1.3548                 1.5651                 1.5834
 IR Inten    --     46.7848                14.0780                 2.5280

                     46                     47                     48
                      A                      A                      A
 Frequencies --   1343.6253              1362.5997              1368.4709
 Red. masses --      2.6460                 1.5869                 1.3718
 Frc consts  --      2.8145                 1.7360                 1.5136
 IR Inten    --     38.2548                 0.3629                 2.6671

                     49                     50                     51
                      A                      A                      A
 Frequencies --   1378.6641              1408.9354              1412.7602
 Red. masses --      1.3953                 1.2559                 1.7485
 Frc consts  --      1.5626                 1.4689                 2.0561
 IR Inten    --      0.4674                 8.8591                 9.9525

                     52                     53                     54
                      A                      A                      A
 Frequencies --   1464.4494              1485.0207              1494.9296
 Red. masses --      1.0882                 1.0676                 1.0793
 Frc consts  --      1.3751                 1.3872                 1.4211
 IR Inten    --     14.3856                 1.9639                 2.3766

                     55                     56                     57
                      A                      A                      A
 Frequencies --   1501.1742              1505.4371              1561.9262
 Red. masses --      5.3964                 1.1128                10.1147
 Frc consts  --      7.1650                 1.4859                14.5387
 IR Inten    --    103.5362                26.9797               234.1202

                     58                     59                     60
                      A                      A                      A
 Frequencies --   1633.7514              1674.0493              1866.7591
 Red. masses --      5.4423                 6.4954                11.4698
 Frc consts  --      8.5587                10.7249                23.5495
 IR Inten    --     35.7228                25.8706               123.5968

                     61                     62                     63
                      A                      A                      A
 Frequencies --   3004.7126              3036.6191              3041.7037
 Red. masses --      1.0692                 1.0657                 1.0363
 Frc consts  --      5.6872                 5.7899                 5.6489
 IR Inten    --     12.5798                10.0404                17.4510

                     64                     65                     66
                      A                      A                      A
 Frequencies --   3050.4746              3083.7336              3109.9124
 Red. masses --      1.0828                 1.1037                 1.1005
 Frc consts  --      5.9363                 6.1836                 6.2712
 IR Inten    --     28.0172                20.4216                 8.2208

                     67                     68                     69
                      A                      A                      A
 Frequencies --   3116.6561              3123.7706              3126.7165
 Red. masses --      1.0867                 1.0880                 1.1005
 Frc consts  --      6.2193                 6.2550                 6.3389
 IR Inten    --      9.2565                29.6332                20.9950

                     70                     71                     72
                      A                      A                      A
 Frequencies --   3158.8962              3193.1137              3205.3224
 Red. masses --      1.0870                 1.0946                 1.0916
 Frc consts  --      6.3906                 6.5756                 6.6077
 IR Inten    --      8.1360                 9.0311                16.8643

 - Thermochemistry -
 -------------------
 Temperature   298.150 Kelvin.  Pressure   1.00000 Atm.
 Atom     1 has atomic number  6 and mass  12.00000

 Molecular mass:   184.10005 amu.
 Principal axes and moments of inertia in atomic units:
                           1         2         3
     Eigenvalues --  1290.913903099.249863701.40692
           X            0.99994  -0.01078   0.00188
           Y            0.01078   0.99994  -0.00138
           Z           -0.00187   0.00140   1.00000
 This molecule is an asymmetric top.
 Rotational symmetry number  1.
 Warning -- assumption of classical behavior for rotation
           may cause significant error
 Rotational temperatures (Kelvin)      0.06710     0.02795     0.02340
 Rotational constants (GHZ):           1.39803     0.58232     0.48758
 Zero-point vibrational energy     553489.9 (Joules/Mol)
                                  132.28725 (Kcal/Mol)
 Warning -- explicit consideration of  18 degrees of freedom as
           vibrations may cause significant error
 Vibrational temperatures:    103.14   191.89   279.04   294.65   346.24
          (Kelvin)            363.80   369.41   425.19   494.19   513.59
                              523.36   606.64   625.94   643.10   710.16
                              807.33   834.29   859.74   947.47   968.86
                             1014.55  1084.12  1105.46  1116.20  1167.92
                             1194.68  1287.47  1299.42  1304.62  1371.39
                             1401.37  1420.05  1439.64  1472.79  1487.75
                             1517.63  1590.58  1639.56  1650.50  1718.92
                             1748.88  1787.65  1798.16  1835.44  1860.88
                             1933.18  1960.48  1968.92  1983.59  2027.14
                             2032.65  2107.02  2136.61  2150.87  2159.85
                             2165.99  2247.26  2350.60  2408.58  2685.85
                             4323.11  4369.02  4376.33  4388.95  4436.80
                             4474.47  4484.17  4494.41  4498.65  4544.95
                             4594.18  4611.74

 Zero-point correction=                           0.210813 (Hartree/Particle)
 Thermal correction to Energy=                    0.222191
 Thermal correction to Enthalpy=                  0.223136
 Thermal correction to Gibbs Free Energy=         0.174498
 Sum of electronic and zero-point Energies=           -573.643360
 Sum of electronic and thermal Energies=              -573.631982
 Sum of electronic and thermal Enthalpies=            -573.631038
 Sum of electronic and thermal Free Energies=         -573.679676

                     E (Thermal)             CV                S
                      KCal/Mol        Cal/Mol-Kelvin    Cal/Mol-Kelvin
 Total                  139.427             47.031            102.367
 Electronic               0.000              0.000              0.000
 Translational            0.889              2.981             41.537
 Rotational               0.889              2.981             31.072
 Vibrational            137.650             41.070             29.758
 Vibration     1          0.598              1.968              4.106
 Vibration     2          0.613              1.920              2.897
 Vibration     3          0.635              1.848              2.190
 Vibration     4          0.640              1.833              2.090
 Vibration     5          0.658              1.778              1.798
 Vibration     6          0.664              1.758              1.711
 Vibration     7          0.666              1.751              1.684
 Vibration     8          0.690              1.682              1.442
 Vibration     9          0.722              1.589              1.196
 Vibration    10          0.732              1.561              1.135
 Vibration    11          0.737              1.547              1.106
 Vibration    12          0.784              1.423              0.886
 Vibration    13          0.796              1.394              0.842
 Vibration    14          0.806              1.368              0.805
 Vibration    15          0.849              1.264              0.674
 Vibration    16          0.917              1.115              0.522
 Vibration    17          0.936              1.075              0.486
 Vibration    18          0.955              1.037              0.454

 Optimization completed.
    -- Stationary point found.
 Normal termination of Gaussian 16 at Fri May 19 10:56:39 2023.
