 Gaussian 16, Revision A.03,
 Gaussian 16:  ES64L-G16RevA.03 25-Dec-2016

 -----------------------------
 # opt freq b3lyp/6-31g(2df,p)
 -----------------------------

 -------------------
 Title Card Required
 -------------------
 Symbolic Z-matrix:
 Charge =  0 Multiplicity = 1

 SCF Done:  E(RB3LYP) =  -1326.59969767     A.U. after   16 cycles
 SCF Done:  E(RB3LYP) =  -1326.64130402     A.U. after   14 cycles
 SCF Done:  E(RB3LYP) =  -1326.66981936     A.U. after   14 cycles
 SCF Done:  E(RB3LYP) =  -1326.67892403     A.U. after   13 cycles
 SCF Done:  E(RB3LYP) =  -1326.68151838     A.U. after   13 cycles
 SCF Done:  E(RB3LYP) =  -1326.68304713     A.U. after   13 cycles
 SCF Done:  E(RB3LYP) =  -1326.68360359     A.U. after   13 cycles
 SCF Done:  E(RB3LYP) =  -1326.68377691     A.U. after   12 cycles
 SCF Done:  E(RB3LYP) =  -1326.68397076     A.U. after   12 cycles
 SCF Done:  E(RB3LYP) =  -1326.68398345     A.U. after   10 cycles
 SCF Done:  E(RB3LYP) =  -1326.68398749     A.U. after    9 cycles
 SCF Done:  E(RB3LYP) =  -1326.68398840     A.U. after    8 cycles
 SCF Done:  E(RB3LYP) =  -1326.68398864     A.U. after    7 cycles
 Optimization completed.
    -- Stationary point found.
 Normal termination of Gaussian 16 at Tue May 16 15:08:08 2023.

 ----------------------------------------------------------------------
 #N Geom=AllCheck Guess=TCheck SCRF=Check GenChk RB3LYP/6-31G(2df,p) Fr
 eq
 ----------------------------------------------------------------------

 Structure from the checkpoint file:  "CC12CqdOrCSNdC1NdCSC2dO.chk"
 -------------------
 Title Card Required
 -------------------
 Charge =  0 Multiplicity = 1

                         Standard orientation:
 ---------------------------------------------------------------------
 Center     Atomic      Atomic             Coordinates (Angstroms)
 Number     Number       Type             X           Y           Z
 ---------------------------------------------------------------------
      1          6           0       -0.536357    0.743290    1.933790
      2          6           0       -0.066997    0.413788    0.493124
      3          6           0        1.271785    1.149547    0.227693
      4          8           0        1.646776    2.057275    0.922368
      5          6           0        2.081278    0.588676   -0.912613
      6         16           0        2.545569   -1.123499   -0.431104
      7          7           0        1.097609   -1.783930    0.047533
      8          6           0        0.039341   -1.112383    0.311759
      9          7           0       -1.111181   -1.869263    0.543638
     10          6           0       -2.256293   -1.441096    0.199493
     11         16           0       -2.658346    0.076482   -0.640349
     12          6           0       -1.088871    0.979324   -0.504613
     13          8           0       -0.924861    1.975773   -1.150964
     14          1           0        0.178145    0.329539    2.648937
     15          1           0       -1.521609    0.326765    2.141453
     16          1           0       -0.558682    1.825757    2.062880
     17          1           0        2.997704    1.162127   -1.055207
     18          1           0        1.503060    0.542010   -1.839671
     19          1           0       -3.137809   -2.052845    0.383606
 ---------------------------------------------------------------------

 SCF Done:  E(RB3LYP) =  -1326.68398864     A.U. after    1 cycles

 The electronic state is 1-A.
 Alpha  occ. eigenvalues --  -88.93355 -88.92527 -19.17853 -19.15907 -14.37316
 Alpha  occ. eigenvalues --  -14.36513 -10.33202 -10.30118 -10.28897 -10.28895
 Alpha  occ. eigenvalues --  -10.25278 -10.24031 -10.20862  -7.99241  -7.98923
 Alpha  occ. eigenvalues --   -5.95837  -5.95336  -5.95311  -5.94969  -5.94772
 Alpha  occ. eigenvalues --   -5.94614  -1.09486  -1.07173  -1.00040  -0.93966
 Alpha  occ. eigenvalues --   -0.84051  -0.81422  -0.79718  -0.72762  -0.67663
 Alpha  occ. eigenvalues --   -0.66819  -0.59702  -0.57522  -0.54327  -0.52332
 Alpha  occ. eigenvalues --   -0.51012  -0.49144  -0.48377  -0.46517  -0.45555
 Alpha  occ. eigenvalues --   -0.44683  -0.43189  -0.41540  -0.40959  -0.40499
 Alpha  occ. eigenvalues --   -0.39781  -0.39406  -0.36899  -0.36027  -0.30536
 Alpha  occ. eigenvalues --   -0.30469  -0.29474  -0.28415  -0.27090  -0.23356
 Alpha virt. eigenvalues --   -0.08719  -0.05368  -0.03601  -0.00414   0.00628
 Alpha virt. eigenvalues --    0.02366   0.05538   0.06032   0.09041   0.10629
 Alpha virt. eigenvalues --    0.11071   0.12433   0.13732   0.15106   0.15999

 Mulliken charges:
               1
     1  C   -0.425878
     2  C   -0.097099
     3  C    0.398019
     4  O   -0.296076
     5  C   -0.346365
     6  S    0.028838
     7  N   -0.260075
     8  C    0.312008
     9  N   -0.162031
    10  C   -0.057221
    11  S   -0.078413
    12  C    0.335427
    13  O   -0.290090
    14  H    0.150553
    15  H    0.143494
    16  H    0.161474
    17  H    0.163100
    18  H    0.162310
    19  H    0.158024
 Sum of Mulliken charges =  -0.00000

 Dipole moment (field-independent basis, Debye):
    X=             -1.4099    Y=             -0.4694    Z=             -0.1337  Tot=              1.4920
 Quadrupole moment (field-independent basis, Debye-Ang):
   XX=            -81.5709   YY=           -100.2102   ZZ=            -86.6538
   XY=              4.1642   XZ=             -5.9734   YZ=              0.4337

  Exact polarizability: 171.449   1.092 119.971  -4.025  -3.721  92.228
 Approx polarizability: 300.189  -3.367 236.015  -6.028 -17.778 160.533

                      1                      2                      3
                      A                      A                      A
 Frequencies --     59.3353                75.9686               126.1036
 Red. masses --     10.4023                13.3811                 7.3368
 Frc consts  --      0.0216                 0.0455                 0.0687
 IR Inten    --      1.1314                 1.5554                 3.2002

                      4                      5                      6
                      A                      A                      A
 Frequencies --    159.2779               182.2949               218.4343
 Red. masses --      4.3322                 1.1707                 3.2306
 Frc consts  --      0.0648                 0.0229                 0.0908
 IR Inten    --      4.0854                 0.5342                 0.1574

                      7                      8                      9
                      A                      A                      A
 Frequencies --    242.5221               272.2940               321.0664
 Red. masses --      4.4759                 6.1413                 4.1351
 Frc consts  --      0.1551                 0.2683                 0.2511
 IR Inten    --      1.9188                 3.5073                 4.7827

                     10                     11                     12
                      A                      A                      A
 Frequencies --    337.1569               359.8799               406.8357
 Red. masses --     10.1151                 4.9468                 6.0126
 Frc consts  --      0.6775                 0.3775                 0.5863
 IR Inten    --      1.0016                 3.5429                 1.1470

                     13                     14                     15
                      A                      A                      A
 Frequencies --    425.2140               444.8119               496.3509
 Red. masses --      9.5426                 5.9771                11.0222
 Frc consts  --      1.0166                 0.6968                 1.5999
 IR Inten    --      3.4655                 7.9090                 2.1102

                     16                     17                     18
                      A                      A                      A
 Frequencies --    519.0601               578.0280               596.4023
 Red. masses --      5.4500                 7.1406                 9.0803
 Frc consts  --      0.8651                 1.4057                 1.9030
 IR Inten    --     12.7504                 1.5209                16.6026

                     19                     20                     21
                      A                      A                      A
 Frequencies --    623.9413               655.6669               708.6024
 Red. masses --      7.7807                 8.3080                 5.8824
 Frc consts  --      1.7847                 2.1043                 1.7402
 IR Inten    --     13.5522                 2.3741                 7.8500

                     22                     23                     24
                      A                      A                      A
 Frequencies --    713.2806               743.4788               798.9555
 Red. masses --      5.4165                 5.1099                 5.8278
 Frc consts  --      1.6236                 1.6642                 2.1918
 IR Inten    --      7.3439                40.7721                26.9578

                     25                     26                     27
                      A                      A                      A
 Frequencies --    854.2398               886.8807               894.8870
 Red. masses --      5.2904                 1.3554                 2.1389
 Frc consts  --      2.2746                 0.6281                 1.0092
 IR Inten    --     41.0532                 8.0779                 2.3604

                     28                     29                     30
                      A                      A                      A
 Frequencies --    931.2843               949.7149              1033.7969
 Red. masses --      2.6625                 2.7501                 2.9236
 Frc consts  --      1.3605                 1.4614                 1.8410
 IR Inten    --     10.9121                75.3076                10.1794

                     31                     32                     33
                      A                      A                      A
 Frequencies --   1106.1480              1120.4619              1149.3763
 Red. masses --      2.6746                 1.7867                 2.3585
 Frc consts  --      1.9281                 1.3216                 1.8357
 IR Inten    --     21.7922                10.7863                 3.7319

                     34                     35                     36
                      A                      A                      A
 Frequencies --   1186.4986              1215.8519              1246.4326
 Red. masses --      1.9882                 1.8898                 3.5786
 Frc consts  --      1.6491                 1.6460                 3.2757
 IR Inten    --     16.0179                35.4964                79.4619

                     37                     38                     39
                      A                      A                      A
 Frequencies --   1364.8559              1407.0907              1445.4515
 Red. masses --      1.2639                 1.1845                 1.1139
 Frc consts  --      1.3872                 1.3817                 1.3712
 IR Inten    --     17.8600                 7.6270                11.6395

                     40                     41                     42
                      A                      A                      A
 Frequencies --   1481.0192              1489.2694              1610.7012
 Red. masses --      1.0494                 1.0479                12.1774
 Frc consts  --      1.3562                 1.3693                18.6138
 IR Inten    --      5.1200                10.2925                82.9541

                     43                     44                     45
                      A                      A                      A
 Frequencies --   1671.6805              1789.8599              1827.8690
 Red. masses --     11.1968                13.0783                12.1588
 Frc consts  --     18.4353                24.6853                23.9349
 IR Inten    --     47.9532               150.8305               246.6273

                     46                     47                     48
                      A                      A                      A
 Frequencies --   3064.2362              3069.1759              3146.7689
 Red. masses --      1.0594                 1.0344                 1.0912
 Frc consts  --      5.8610                 5.7407                 6.3665
 IR Inten    --      1.6812                 7.3356                 4.3573

                     49                     50                     51
                      A                      A                      A
 Frequencies --   3147.3694              3150.1995              3166.3404
 Red. masses --      1.1011                 1.1054                 1.1039
 Frc consts  --      6.4262                 6.4631                 6.5207
 IR Inten    --      4.2898                 0.1664                 3.4365

 - Thermochemistry -
 -------------------
 Temperature   298.150 Kelvin.  Pressure   1.00000 Atm.
 Atom     1 has atomic number  6 and mass  12.00000

 Molecular mass:   213.98707 amu.
 Principal axes and moments of inertia in atomic units:
                           1         2         3
     Eigenvalues --  1767.165903001.225013758.01327
           X            0.99945   0.02674  -0.01951
           Y           -0.02654   0.99959   0.01031
           Z            0.01978  -0.00979   0.99976
 This molecule is an asymmetric top.
 Rotational symmetry number  1.
 Warning -- assumption of classical behavior for rotation
           may cause significant error
 Rotational temperatures (Kelvin)      0.04901     0.02886     0.02305
 Rotational constants (GHZ):           1.02126     0.60133     0.48024
 Zero-point vibrational energy     331798.8 (Joules/Mol)
                                   79.30181 (Kcal/Mol)
 Warning -- explicit consideration of  18 degrees of freedom as
           vibrations may cause significant error
 Vibrational temperatures:     85.37   109.30   181.43   229.17   262.28
          (Kelvin)            314.28   348.94   391.77   461.94   485.09
                              517.79   585.35   611.79   639.99   714.14
                              746.81   831.65   858.09   897.71   943.36
                             1019.52  1026.25  1069.70  1149.52  1229.06
                             1276.02  1287.54  1339.91  1366.43  1487.40
                             1591.50  1612.09  1653.70  1707.11  1749.34
                             1793.34  1963.72  2024.49  2079.68  2130.86
                             2142.73  2317.44  2405.18  2575.21  2629.90
                             4408.75  4415.86  4527.50  4528.36  4532.43
                             4555.66

 Zero-point correction=                           0.126375 (Hartree/Particle)
 Thermal correction to Energy=                    0.138069
 Thermal correction to Enthalpy=                  0.139013
 Thermal correction to Gibbs Free Energy=         0.088404
 Sum of electronic and zero-point Energies=          -1326.557613
 Sum of electronic and thermal Energies=             -1326.545919
 Sum of electronic and thermal Enthalpies=           -1326.544975
 Sum of electronic and thermal Free Energies=        -1326.595585

                     E (Thermal)             CV                S
                      KCal/Mol        Cal/Mol-Kelvin    Cal/Mol-Kelvin
 Total                   86.640             44.230            106.517
 Electronic               0.000              0.000              0.000
 Translational            0.889              2.981             41.986
 Rotational               0.889              2.981             31.367
 Vibrational             84.862             38.268             33.165
 Vibration     1          0.597              1.974              4.479
 Vibration     2          0.599              1.965              3.992
 Vibration     3          0.611              1.927              3.005
 Vibration     4          0.621              1.892              2.558
 Vibration     5          0.630              1.864              2.305
 Vibration     6          0.646              1.813              1.972
 Vibration     7          0.659              1.775              1.784
 Vibration     8          0.675              1.724              1.582
 Vibration     9          0.707              1.633              1.305
 Vibration    10          0.718              1.601              1.226
 Vibration    11          0.734              1.555              1.123
 Vibration    12          0.772              1.455              0.938
 Vibration    13          0.787              1.415              0.874
 Vibration    14          0.804              1.372              0.812
 Vibration    15          0.852              1.258              0.667
 Vibration    16          0.874              1.208              0.612
 Vibration    17          0.935              1.079              0.489
 Vibration    18          0.954              1.039              0.456

                           ! Non-Optimized Parameters !
 Normal termination of Gaussian 16 at Tue May 16 16:15:05 2023.
