 Gaussian 16, Revision A.03,
 Gaussian 16:  ES64L-G16RevA.03 25-Dec-2016

 -----------------------------
 # opt freq b3lyp/6-31g(2df,p)
 -----------------------------

 -------------------
 Title Card Required
 -------------------
 Symbolic Z-matrix:
 Charge =  0 Multiplicity = 1

 SCF Done:  E(RB3LYP) =  -1612.24222825     A.U. after   24 cycles
 SCF Done:  E(RB3LYP) =  -1612.30385397     A.U. after   16 cycles
 SCF Done:  E(RB3LYP) =  -1612.35120085     A.U. after   16 cycles
 SCF Done:  E(RB3LYP) =  -1612.39230656     A.U. after   15 cycles
 SCF Done:  E(RB3LYP) =  -1612.43548843     A.U. after   15 cycles
 SCF Done:  E(RB3LYP) =  -1612.46812541     A.U. after   15 cycles
 SCF Done:  E(RB3LYP) =  -1612.47694813     A.U. after   15 cycles
 SCF Done:  E(RB3LYP) =  -1612.48128955     A.U. after   15 cycles
 SCF Done:  E(RB3LYP) =  -1612.48450966     A.U. after   14 cycles
 SCF Done:  E(RB3LYP) =  -1612.48499264     A.U. after   14 cycles
 SCF Done:  E(RB3LYP) =  -1612.48582377     A.U. after   13 cycles
 SCF Done:  E(RB3LYP) =  -1612.48596854     A.U. after   13 cycles
 SCF Done:  E(RB3LYP) =  -1612.48612592     A.U. after   12 cycles
 SCF Done:  E(RB3LYP) =  -1612.48613703     A.U. after   10 cycles
 SCF Done:  E(RB3LYP) =  -1612.48614110     A.U. after   10 cycles
 SCF Done:  E(RB3LYP) =  -1612.48614232     A.U. after    9 cycles
 SCF Done:  E(RB3LYP) =  -1612.48614284     A.U. after    8 cycles
 Optimization completed.
    -- Stationary point found.
 Normal termination of Gaussian 16 at Wed May 17 03:23:17 2023.

 ----------------------------------------------------------------------
 #N Geom=AllCheck Guess=TCheck SCRF=Check GenChk RB3LYP/6-31G(2df,p) Fr
 eq
 ----------------------------------------------------------------------

 Structure from the checkpoint file:  "CC12CqdSrNdCNdCC1dCSC2dS.chk"
 -------------------
 Title Card Required
 -------------------
 Charge =  0 Multiplicity = 1

                         Standard orientation:
 ---------------------------------------------------------------------
 Center     Atomic      Atomic             Coordinates (Angstroms)
 Number     Number       Type             X           Y           Z
 ---------------------------------------------------------------------
      1          6           0        0.258366   -0.530258    1.980782
      2          6           0        0.086123   -0.071132    0.507125
      3          6           0       -1.004531   -0.899609   -0.214020
      4         16           0       -1.465742   -2.401349    0.233900
      5          7           0       -1.568198   -0.290656   -1.309622
      6          6           0       -2.252937    0.780617   -1.271757
      7          7           0       -2.616319    1.522996   -0.136641
      8          6           0       -1.680026    1.835097    0.678970
      9          6           0       -0.274867    1.411008    0.488140
     10          6           0        0.736893    2.229658    0.185193
     11         16           0        2.215080    1.402679   -0.287317
     12          6           0        1.486002   -0.195793   -0.145044
     13         16           0        2.261465   -1.563253   -0.546444
     14          1           0       -0.685453   -0.422811    2.520142
     15          1           0        1.023784    0.079809    2.468118
     16          1           0        0.557490   -1.578349    1.999580
     17          1           0       -2.664053    1.171141   -2.201999
     18          1           0       -1.946868    2.446508    1.543266
     19          1           0        0.703718    3.310550    0.136156
 ---------------------------------------------------------------------

 SCF Done:  E(RB3LYP) =  -1612.48614284     A.U. after    1 cycles

 The electronic state is 1-A.
 Alpha  occ. eigenvalues --  -88.93382 -88.86815 -88.85421 -14.37188 -14.36493
 Alpha  occ. eigenvalues --  -10.29625 -10.29164 -10.28982 -10.28252 -10.25822
 Alpha  occ. eigenvalues --  -10.25512 -10.23786 -10.20402  -7.99582  -7.93347
 Alpha  occ. eigenvalues --   -7.91975  -5.96009  -5.95618  -5.95294  -5.89669
 Alpha  occ. eigenvalues --   -5.89571  -5.88898  -5.88298  -5.88220  -5.87503
 Alpha  occ. eigenvalues --   -1.00948  -0.93577  -0.91305  -0.82194  -0.80989
 Alpha  occ. eigenvalues --   -0.76443  -0.73826  -0.69388  -0.67864  -0.63865
 Alpha  occ. eigenvalues --   -0.59115  -0.57800  -0.54874  -0.52150  -0.49700
 Alpha  occ. eigenvalues --   -0.47725  -0.46418  -0.44698  -0.41939  -0.41311
 Alpha  occ. eigenvalues --   -0.40262  -0.39680  -0.38941  -0.37254  -0.35878
 Alpha  occ. eigenvalues --   -0.35216  -0.33407  -0.31594  -0.28829  -0.26195
 Alpha  occ. eigenvalues --   -0.24795  -0.23788  -0.22444
 Alpha virt. eigenvalues --   -0.10055  -0.08591  -0.06893  -0.02637   0.00070
 Alpha virt. eigenvalues --    0.00920   0.06201   0.08915   0.09721   0.10359
 Alpha virt. eigenvalues --    0.11108   0.11766   0.13429   0.14370   0.16005

 Mulliken charges:
               1
     1  C   -0.410980
     2  C    0.006313
     3  C    0.274907
     4  S   -0.306159
     5  N   -0.185063
     6  C    0.066140
     7  N   -0.181450
     8  C   -0.074241
     9  C    0.227351
    10  C   -0.248369
    11  S    0.016326
    12  C    0.189168
    13  S   -0.260731
    14  H    0.136263
    15  H    0.131509
    16  H    0.180318
    17  H    0.144435
    18  H    0.143965
    19  H    0.150299
 Sum of Mulliken charges =  -0.00000

 Dipole moment (field-independent basis, Debye):
    X=              0.0206    Y=              5.3970    Z=              1.6380  Tot=              5.6402
 Quadrupole moment (field-independent basis, Debye-Ang):
   XX=           -103.4868   YY=            -93.8929   ZZ=            -92.3943
   XY=             -1.4476   XZ=              1.5937   YZ=             -0.8497

  Exact polarizability: 160.863  -4.689 179.708  -4.781  -0.184 107.325
 Approx polarizability: 272.762 -15.740 361.989 -14.823  -0.487 195.477

                      1                      2                      3
                      A                      A                      A
 Frequencies --     39.4901                67.5530               121.5043
 Red. masses --     14.5160                 8.9834                 9.9806
 Frc consts  --      0.0133                 0.0242                 0.0868
 IR Inten    --      0.3947                 0.5346                 0.4978

                      4                      5                      6
                      A                      A                      A
 Frequencies --    167.3145               215.2353               248.3484
 Red. masses --      7.5715                 4.7165                 4.3408
 Frc consts  --      0.1249                 0.1287                 0.1577
 IR Inten    --      0.3798                 0.3528                 1.8699

                      7                      8                      9
                      A                      A                      A
 Frequencies --    261.9380               270.1010               288.6929
 Red. masses --      2.3115                 3.4477                 1.5807
 Frc consts  --      0.0934                 0.1482                 0.0776
 IR Inten    --      0.9245                 4.9236                 2.2967

                     10                     11                     12
                      A                      A                      A
 Frequencies --    292.2048               340.2120               378.8345
 Red. masses --      4.5368                 6.8618                 4.8609
 Frc consts  --      0.2282                 0.4679                 0.4110
 IR Inten    --      1.8129                 3.3113                 2.0241

                     13                     14                     15
                      A                      A                      A
 Frequencies --    422.6354               459.8287               505.0915
 Red. masses --      6.6902                 8.5372                 5.6920
 Frc consts  --      0.7041                 1.0635                 0.8556
 IR Inten    --      6.0255                 4.7712                 1.4532

                     16                     17                     18
                      A                      A                      A
 Frequencies --    549.2899               558.5240               598.9251
 Red. masses --      7.3981                 8.4545                 5.9646
 Frc consts  --      1.3151                 1.5539                 1.2606
 IR Inten    --      3.8690                12.6769                 8.7973

                     19                     20                     21
                      A                      A                      A
 Frequencies --    661.4695               677.2440               768.7890
 Red. masses --      5.7510                 4.3013                 6.4430
 Frc consts  --      1.4826                 1.1623                 2.2436
 IR Inten    --     16.6216                33.8844                17.2958

                     22                     23                     24
                      A                      A                      A
 Frequencies --    797.7222               817.3494               846.3858
 Red. masses --      3.9404                 4.8331                 1.6659
 Frc consts  --      1.4774                 1.9023                 0.7031
 IR Inten    --     11.0054                47.3367                 9.5861

                     25                     26                     27
                      A                      A                      A
 Frequencies --    876.1167               918.9254               944.9296
 Red. masses --      2.2866                 3.1495                 2.3286
 Frc consts  --      1.0341                 1.5669                 1.2250
 IR Inten    --      6.9986                33.7357                21.6165

                     28                     29                     30
                      A                      A                      A
 Frequencies --    989.4800              1023.0970              1037.8578
 Red. masses --      1.5979                 3.2143                 5.1856
 Frc consts  --      0.9218                 1.9823                 3.2910
 IR Inten    --     13.7772                21.4525                29.1792

                     31                     32                     33
                      A                      A                      A
 Frequencies --   1078.6889              1094.4691              1150.5575
 Red. masses --      3.3859                 2.2479                 3.0157
 Frc consts  --      2.3212                 1.5865                 2.3521
 IR Inten    --     53.9000                12.3694                24.8308

                     34                     35                     36
                      A                      A                      A
 Frequencies --   1158.4381              1187.3004              1243.6699
 Red. masses --      2.3725                 5.3249                 3.8223
 Frc consts  --      1.8759                 4.4226                 3.4833
 IR Inten    --     69.3750                59.2766               175.0512

                     37                     38                     39
                      A                      A                      A
 Frequencies --   1281.7575              1380.0736              1398.0597
 Red. masses --      2.8152                 1.2350                 1.1841
 Frc consts  --      2.7250                 1.3859                 1.3636
 IR Inten    --     37.3595                14.3455                 7.0184

                     40                     41                     42
                      A                      A                      A
 Frequencies --   1412.6645              1477.2821              1479.6766
 Red. masses --      1.3300                 1.0516                 1.0507
 Frc consts  --      1.5638                 1.3521                 1.3554
 IR Inten    --     28.9956                 8.3755                10.2369

                     43                     44                     45
                      A                      A                      A
 Frequencies --   1635.6541              1652.3424              1701.8496
 Red. masses --      9.2729                10.4525                 9.9569
 Frc consts  --     14.6167                16.8140                16.9910
 IR Inten    --     33.2734               111.6464               170.7915

                     46                     47                     48
                      A                      A                      A
 Frequencies --   3050.6333              3109.2591              3129.7083
 Red. masses --      1.0337                 1.0886                 1.1031
 Frc consts  --      5.6678                 6.2005                 6.3659
 IR Inten    --      9.8427                20.6104                 9.4634

                     49                     50                     51
                      A                      A                      A
 Frequencies --   3144.5807              3158.0273              3219.8850
 Red. masses --      1.0892                 1.1020                 1.0946
 Frc consts  --      6.3458                 6.4756                 6.6863
 IR Inten    --     15.7487                 0.9503                 1.4366

 - Thermochemistry -
 -------------------
 Temperature   298.150 Kelvin.  Pressure   1.00000 Atm.
 Atom     1 has atomic number  6 and mass  12.00000

 Molecular mass:   225.96931 amu.
 Principal axes and moments of inertia in atomic units:
                           1         2         3
     Eigenvalues --  2377.637882912.753384283.10436
           X            0.99917  -0.03975   0.00885
           Y            0.03980   0.99919  -0.00593
           Z           -0.00860   0.00628   0.99994
 This molecule is an asymmetric top.
 Rotational symmetry number  1.
 Warning -- assumption of classical behavior for rotation
           may cause significant error
 Rotational temperatures (Kelvin)      0.03643     0.02974     0.02022
 Rotational constants (GHZ):           0.75905     0.61960     0.42136
 Zero-point vibrational energy     330705.6 (Joules/Mol)
                                   79.04055 (Kcal/Mol)
 Warning -- explicit consideration of  18 degrees of freedom as
           vibrations may cause significant error
 Vibrational temperatures:     56.82    97.19   174.82   240.73   309.68
          (Kelvin)            357.32   376.87   388.62   415.36   420.42
                              489.49   545.06   608.08   661.59   726.71
                              790.31   803.59   861.72   951.71   974.40
                             1106.12  1147.74  1175.98  1217.76  1260.54
                             1322.13  1359.54  1423.64  1472.01  1493.25
                             1551.99  1574.70  1655.40  1666.73  1708.26
                             1789.36  1844.16  1985.62  2011.50  2032.51
                             2125.48  2128.92  2353.34  2377.35  2448.58
                             4389.18  4473.53  4502.95  4524.35  4543.70
                             4632.70

 Zero-point correction=                           0.125959 (Hartree/Particle)
 Thermal correction to Energy=                    0.137570
 Thermal correction to Enthalpy=                  0.138515
 Thermal correction to Gibbs Free Energy=         0.087409
 Sum of electronic and zero-point Energies=          -1612.360184
 Sum of electronic and thermal Energies=             -1612.348572
 Sum of electronic and thermal Enthalpies=           -1612.347628
 Sum of electronic and thermal Free Energies=        -1612.398734

                     E (Thermal)             CV                S
                      KCal/Mol        Cal/Mol-Kelvin    Cal/Mol-Kelvin
 Total                   86.327             43.649            107.561
 Electronic               0.000              0.000              0.000
 Translational            0.889              2.981             42.148
 Rotational               0.889              2.981             31.762
 Vibrational             84.549             37.687             33.651
 Vibration     1          0.594              1.981              5.285
 Vibration     2          0.598              1.970              4.223
 Vibration     3          0.609              1.931              3.076
 Vibration     4          0.624              1.883              2.465
 Vibration     5          0.645              1.818              1.999
 Vibration     6          0.662              1.766              1.742
 Vibration     7          0.669              1.742              1.649
 Vibration     8          0.674              1.728              1.596
 Vibration     9          0.685              1.695              1.482
 Vibration    10          0.688              1.688              1.461
 Vibration    11          0.720              1.595              1.211
 Vibration    12          0.749              1.515              1.044
 Vibration    13          0.785              1.421              0.883
 Vibration    14          0.818              1.339              0.767
 Vibration    15          0.860              1.239              0.646
 Vibration    16          0.905              1.141              0.546
 Vibration    17          0.914              1.121              0.527
 Vibration    18          0.957              1.034              0.452

 Optimization completed.
    -- Stationary point found.
 Normal termination of Gaussian 16 at Wed May 17 04:41:03 2023.
