 Gaussian 16, Revision A.03,
 Gaussian 16:  ES64L-G16RevA.03 25-Dec-2016

 -----------------------------
 # opt freq b3lyp/6-31g(2df,p)
 -----------------------------

 -------------------
 Title Card Required
 -------------------
 Symbolic Z-matrix:
 Charge =  0 Multiplicity = 1

 SCF Done:  E(RB3LYP) =  -1349.80467069     A.U. after   17 cycles
 SCF Done:  E(RB3LYP) =  -1349.84739200     A.U. after   15 cycles
 SCF Done:  E(RB3LYP) =  -1349.85466145     A.U. after   15 cycles
 SCF Done:  E(RB3LYP) =  -1349.88352693     A.U. after   14 cycles
 SCF Done:  E(RB3LYP) =  -1349.89732872     A.U. after   14 cycles
 SCF Done:  E(RB3LYP) =  -1349.90819533     A.U. after   14 cycles
 SCF Done:  E(RB3LYP) =  -1349.91290487     A.U. after   14 cycles
 SCF Done:  E(RB3LYP) =  -1349.91770767     A.U. after   14 cycles
 SCF Done:  E(RB3LYP) =  -1349.92018605     A.U. after   13 cycles
 SCF Done:  E(RB3LYP) =  -1349.92398832     A.U. after   14 cycles
 SCF Done:  E(RB3LYP) =  -1349.93452212     A.U. after   13 cycles
 SCF Done:  E(RB3LYP) =  -1349.93461018     A.U. after   11 cycles
 SCF Done:  E(RB3LYP) =  -1349.93467397     A.U. after   11 cycles
 SCF Done:  E(RB3LYP) =  -1349.93471303     A.U. after   11 cycles
 SCF Done:  E(RB3LYP) =  -1349.93472780     A.U. after   10 cycles
 SCF Done:  E(RB3LYP) =  -1349.93473570     A.U. after   10 cycles
 SCF Done:  E(RB3LYP) =  -1349.93474080     A.U. after   10 cycles
 SCF Done:  E(RB3LYP) =  -1349.93474350     A.U. after   10 cycles
 SCF Done:  E(RB3LYP) =  -1349.93474383     A.U. after    8 cycles
 Optimization completed.
    -- Stationary point found.
 Normal termination of Gaussian 16 at Thu May 18 03:38:21 2023.

 ----------------------------------------------------------------------
 #N Geom=AllCheck Guess=TCheck SCRF=Check GenChk RB3LYP/6-31G(2df,p) Fr
 eq
 ----------------------------------------------------------------------

 Structure from the checkpoint file:  "CC12SCdNCdCC1dCCqdOrCqOrS2.chk"
 -------------------
 Title Card Required
 -------------------
 Charge =  0 Multiplicity = 1

                         Standard orientation:
 ---------------------------------------------------------------------
 Center     Atomic      Atomic             Coordinates (Angstroms)
 Number     Number       Type             X           Y           Z
 ---------------------------------------------------------------------
      1          6           0       -1.125262   -0.658813    1.906097
      2          6           0       -0.390669   -0.433307    0.574168
      3         16           0       -1.245798   -1.387532   -0.778799
      4          6           0       -2.871665   -0.725081   -0.901087
      5          7           0       -3.430886    0.364140   -0.538721
      6          6           0       -2.834251    1.495360   -0.016471
      7          6           0       -1.549255    1.825443    0.254390
      8          6           0       -0.319872    1.044519    0.209443
      9          6           0        0.840103    1.695085   -0.057347
     10          6           0        2.147529    1.079358   -0.255567
     11          8           0        3.202954    1.689416   -0.201899
     12          6           0        2.180901   -0.404880   -0.593442
     13          8           0        3.472965   -0.882563   -0.637645
     14         16           0        1.245298   -1.244687    0.775436
     15          1           0       -2.174083   -0.369673    1.834578
     16          1           0       -0.646391   -0.065138    2.690171
     17          1           0       -1.074502   -1.715020    2.184136
     18          1           0       -3.495182   -1.455409   -1.423145
     19          1           0       -3.560717    2.293179    0.122020
     20          1           0       -1.395585    2.869966    0.514632
     21          1           0        0.824007    2.773936   -0.179985
     22          1           0        1.646790   -0.607321   -1.530625
     23          1           0        4.027171   -0.118917   -0.391681
 ---------------------------------------------------------------------

 SCF Done:  E(RB3LYP) =  -1349.93474383     A.U. after    1 cycles

 The electronic state is 1-A.
 Alpha  occ. eigenvalues --  -88.91495 -88.89236 -19.15714 -19.15191 -14.34783
 Alpha  occ. eigenvalues --  -10.28831 -10.28580 -10.27776 -10.27585 -10.24897
 Alpha  occ. eigenvalues --  -10.24088 -10.21579 -10.21328 -10.20878  -7.97760
 Alpha  occ. eigenvalues --   -7.95601  -5.94205  -5.93797  -5.93427  -5.92086
 Alpha  occ. eigenvalues --   -5.91740  -5.91102  -1.07377  -1.03500  -0.95254
 Alpha  occ. eigenvalues --   -0.88610  -0.82489  -0.78851  -0.77369  -0.73882
 Alpha  occ. eigenvalues --   -0.68997  -0.67367  -0.64085  -0.59644  -0.56237
 Alpha  occ. eigenvalues --   -0.55471  -0.52823  -0.50190  -0.49073  -0.47298
 Alpha  occ. eigenvalues --   -0.46656  -0.45785  -0.44408  -0.43600  -0.41399
 Alpha  occ. eigenvalues --   -0.41165  -0.40354  -0.39444  -0.38384  -0.36918
 Alpha  occ. eigenvalues --   -0.36042  -0.34531  -0.31791  -0.30124  -0.28925
 Alpha  occ. eigenvalues --   -0.28047  -0.26745  -0.24650  -0.23330
 Alpha virt. eigenvalues --   -0.10013  -0.04896  -0.00490   0.01062   0.02642
 Alpha virt. eigenvalues --    0.05377   0.06679   0.07678   0.09455   0.09868
 Alpha virt. eigenvalues --    0.11269   0.12002   0.13604   0.13836   0.14425

 Mulliken charges:
               1
     1  C   -0.424743
     2  C    0.034715
     3  S   -0.055824
     4  C   -0.037241
     5  N   -0.213901
     6  C   -0.022315
     7  C   -0.102568
     8  C    0.221865
     9  C   -0.255499
    10  C    0.341183
    11  O   -0.357770
    12  C    0.015914
    13  O   -0.418463
    14  S   -0.125481
    15  H    0.151652
    16  H    0.147546
    17  H    0.152345
    18  H    0.145575
    19  H    0.119259
    20  H    0.116706
    21  H    0.120104
    22  H    0.143478
    23  H    0.303463
 Sum of Mulliken charges =   0.00000

 Dipole moment (field-independent basis, Debye):
    X=             -2.7289    Y=              0.9919    Z=              0.5675  Tot=              2.9585
 Quadrupole moment (field-independent basis, Debye-Ang):
   XX=           -105.3338   YY=            -94.9147   ZZ=            -92.8013
   XY=              0.2825   XZ=             -1.2180   YZ=              0.8439

  Exact polarizability: 208.940   8.592 142.533   3.626   6.463  97.767
 Approx polarizability: 386.106  34.382 264.739  10.222  21.428 170.505

                      1                      2                      3
                      A                      A                      A
 Frequencies --     45.0829                75.5232                94.6554
 Red. masses --      5.4482                 9.6870                 7.0280
 Frc consts  --      0.0065                 0.0326                 0.0371
 IR Inten    --      1.0129                 0.5934                 0.1922

                      4                      5                      6
                      A                      A                      A
 Frequencies --    145.3957               203.6720               212.4998
 Red. masses --      4.9736                 5.8597                 4.4367
 Frc consts  --      0.0619                 0.1432                 0.1180
 IR Inten    --      1.4190                 0.5829                 0.4775

                      7                      8                      9
                      A                      A                      A
 Frequencies --    253.6543               258.0633               267.9766
 Red. masses --      3.4636                 2.1269                 2.1859
 Frc consts  --      0.1313                 0.0835                 0.0925
 IR Inten    --      0.9685                 0.8470                 1.2512

                     10                     11                     12
                      A                      A                      A
 Frequencies --    309.9696               313.9500               332.7492
 Red. masses --      4.3242                 5.5193                 3.4990
 Frc consts  --      0.2448                 0.3205                 0.2283
 IR Inten    --      8.3267                 3.3252                15.6397

                     13                     14                     15
                      A                      A                      A
 Frequencies --    356.5135               379.2814               389.5367
 Red. masses --      5.0979                 6.6261                 5.5481
 Frc consts  --      0.3818                 0.5616                 0.4960
 IR Inten    --      4.5590                 1.6010                 6.3812

                     16                     17                     18
                      A                      A                      A
 Frequencies --    470.7079               481.0890               511.4878
 Red. masses --      6.8705                 5.0460                 1.3231
 Frc consts  --      0.8969                 0.6881                 0.2040
 IR Inten    --      3.8509                 9.3621                34.6116

                     19                     20                     21
                      A                      A                      A
 Frequencies --    549.9641               593.3711               623.9766
 Red. masses --      3.9257                 4.9291                 5.9854
 Frc consts  --      0.6996                 1.0225                 1.3730
 IR Inten    --     18.0314                16.7351                 7.9083

                     22                     23                     24
                      A                      A                      A
 Frequencies --    678.8272               682.1935               709.2998
 Red. masses --      4.6750                 5.6553                 4.8709
 Frc consts  --      1.2693                 1.5507                 1.4438
 IR Inten    --      9.0398                 3.9315                20.4191

                     25                     26                     27
                      A                      A                      A
 Frequencies --    753.3835               785.7105               809.6430
 Red. masses --      4.5969                 1.9998                 2.6055
 Frc consts  --      1.5373                 0.7274                 1.0063
 IR Inten    --     11.8084                17.7537                14.4681

                     28                     29                     30
                      A                      A                      A
 Frequencies --    839.4794               844.0408               878.2972
 Red. masses --      4.1671                 3.0026                 1.9406
 Frc consts  --      1.7302                 1.2603                 0.8820
 IR Inten    --     55.2715                 0.3711                 6.8336

                     31                     32                     33
                      A                      A                      A
 Frequencies --    890.8795               921.6369               990.9482
 Red. masses --      2.0341                 1.9560                 2.5640
 Frc consts  --      0.9512                 0.9789                 1.4834
 IR Inten    --      7.2708                28.6547                12.8764

                     34                     35                     36
                      A                      A                      A
 Frequencies --    998.2261              1060.1691              1098.4968
 Red. masses --      1.5248                 3.5880                 1.8216
 Frc consts  --      0.8952                 2.3760                 1.2951
 IR Inten    --      0.3176                 7.5555                32.3955

                     37                     38                     39
                      A                      A                      A
 Frequencies --   1120.0239              1139.5769              1188.3939
 Red. masses --      2.1362                 2.3816                 2.3036
 Frc consts  --      1.5789                 1.8222                 1.9168
 IR Inten    --     13.8658               154.8608                48.5796

                     40                     41                     42
                      A                      A                      A
 Frequencies --   1198.0858              1264.1705              1297.7262
 Red. masses --      1.9210                 1.7010                 1.3187
 Frc consts  --      1.6246                 1.6016                 1.3085
 IR Inten    --     42.3204                35.9828                 5.4186

                     43                     44                     45
                      A                      A                      A
 Frequencies --   1322.6931              1357.5479              1391.8624
 Red. masses --      1.7117                 1.5358                 1.2297
 Frc consts  --      1.7644                 1.6676                 1.4036
 IR Inten    --     54.0886                 4.5041                41.1793

                     46                     47                     48
                      A                      A                      A
 Frequencies --   1413.4167              1445.1399              1454.3286
 Red. masses --      1.2015                 1.3114                 1.4191
 Frc consts  --      1.4143                 1.6136                 1.7684
 IR Inten    --      6.7157               123.6703                 5.9727

                     49                     50                     51
                      A                      A                      A
 Frequencies --   1481.0755              1485.3462              1607.7772
 Red. masses --      1.0493                 1.0462                 7.1050
 Frc consts  --      1.3562                 1.3600                10.8210
 IR Inten    --      5.8631                 3.0412                 9.9992

                     52                     53                     54
                      A                      A                      A
 Frequencies --   1611.2562              1649.1932              1746.9272
 Red. masses --      8.5194                 7.0928                11.0157
 Frc consts  --     13.0312                11.3660                19.8067
 IR Inten    --    130.4607               145.8620               328.9333

                     55                     56                     57
                      A                      A                      A
 Frequencies --   3020.9469              3049.9922              3092.0120
 Red. masses --      1.0842                 1.0353                 1.0872
 Frc consts  --      5.8298                 5.6744                 6.1242
 IR Inten    --     11.6090                 6.0030                 8.2568

                     58                     59                     60
                      A                      A                      A
 Frequencies --   3123.2433              3141.8506              3150.5633
 Red. masses --      1.1027                 1.0835                 1.1007
 Frc consts  --      6.3377                 6.3018                 6.4372
 IR Inten    --      2.7184                 7.4088                 5.2781

                     61                     62                     63
                      A                      A                      A
 Frequencies --   3162.2218              3177.1672              3619.1676
 Red. masses --      1.0917                 1.0888                 1.0640
 Frc consts  --      6.4321                 6.4759                 8.2114
 IR Inten    --     18.1106                 3.8398                67.2253

 - Thermochemistry -
 -------------------
 Temperature   298.150 Kelvin.  Pressure   1.00000 Atm.
 Atom     1 has atomic number  6 and mass  12.00000

 Molecular mass:   227.00747 amu.
 Principal axes and moments of inertia in atomic units:
                           1         2         3
     Eigenvalues --  1699.058574182.323974926.39868
           X            0.99994  -0.00523  -0.00940
           Y            0.00522   0.99999  -0.00093
           Z            0.00940   0.00088   0.99996
 This molecule is an asymmetric top.
 Rotational symmetry number  1.
 Warning -- assumption of classical behavior for rotation
           may cause significant error
 Rotational temperatures (Kelvin)      0.05098     0.02071     0.01758
 Rotational constants (GHZ):           1.06220     0.43152     0.36634
 Zero-point vibrational energy     439759.6 (Joules/Mol)
                                  105.10506 (Kcal/Mol)
 Warning -- explicit consideration of  20 degrees of freedom as
           vibrations may cause significant error
 Vibrational temperatures:     64.86   108.66   136.19   209.19   293.04
          (Kelvin)            305.74   364.95   371.30   385.56   445.98
                              451.70   478.75   512.94   545.70   560.46
                              677.24   692.18   735.92   791.28   853.73
                              897.76   976.68   981.52  1020.52  1083.95
                             1130.46  1164.90  1207.82  1214.39  1263.67
                             1281.78  1326.03  1425.75  1436.22  1525.35
                             1580.49  1611.46  1639.60  1709.83  1723.78
                             1818.86  1867.14  1903.06  1953.21  2002.58
                             2033.59  2079.23  2092.45  2130.94  2137.08
                             2313.23  2318.24  2372.82  2513.44  4346.47
                             4388.26  4448.72  4493.65  4520.42  4532.96
                             4549.73  4571.23  5207.18

 Zero-point correction=                           0.167496 (Hartree/Particle)
 Thermal correction to Energy=                    0.180464
 Thermal correction to Enthalpy=                  0.181408
 Thermal correction to Gibbs Free Energy=         0.128059
 Sum of electronic and zero-point Energies=          -1349.767248
 Sum of electronic and thermal Energies=             -1349.754280
 Sum of electronic and thermal Enthalpies=           -1349.753336
 Sum of electronic and thermal Free Energies=        -1349.806685

                     E (Thermal)             CV                S
                      KCal/Mol        Cal/Mol-Kelvin    Cal/Mol-Kelvin
 Total                  113.243             50.002            112.282
 Electronic               0.000              0.000              0.000
 Translational            0.889              2.981             42.162
 Rotational               0.889              2.981             31.926
 Vibrational            111.465             44.041             38.194
 Vibration     1          0.595              1.979              5.022
 Vibration     2          0.599              1.965              4.004
 Vibration     3          0.603              1.953              3.561
 Vibration     4          0.617              1.908              2.732
 Vibration     5          0.639              1.835              2.100
 Vibration     6          0.644              1.822              2.022
 Vibration     7          0.665              1.757              1.705
 Vibration     8          0.667              1.749              1.675
 Vibration     9          0.673              1.732              1.609
 Vibration    10          0.699              1.655              1.362
 Vibration    11          0.702              1.647              1.341
 Vibration    12          0.715              1.610              1.247
 Vibration    13          0.732              1.562              1.137
 Vibration    14          0.749              1.514              1.042
 Vibration    15          0.757              1.493              1.002
 Vibration    16          0.828              1.315              0.736
 Vibration    17          0.837              1.292              0.707
 Vibration    18          0.867              1.225              0.630
 Vibration    19          0.905              1.140              0.544
 Vibration    20          0.951              1.046              0.461

 Optimization completed.
    -- Stationary point found.
 Normal termination of Gaussian 16 at Thu May 18 05:04:52 2023.
