 Gaussian 16, Revision A.03,
 Gaussian 16:  ES64L-G16RevA.03 25-Dec-2016

 -----------------------------
 # opt freq b3lyp/6-31g(2df,p)
 -----------------------------

 -------------------
 Title Card Required
 -------------------
 Symbolic Z-matrix:
 Charge =  0 Multiplicity = 1

 SCF Done:  E(RB3LYP) =  -664.916787824     A.U. after   25 cycles
 SCF Done:  E(RB3LYP) =  -665.064805717     A.U. after   21 cycles
 SCF Done:  E(RB3LYP) =  -665.178170634     A.U. after   22 cycles
 SCF Done:  E(RB3LYP) =  -665.314568866     A.U. after   21 cycles
 SCF Done:  E(RB3LYP) =  -665.287779617     A.U. after   19 cycles
 SCF Done:  E(RB3LYP) =  -665.406837744     A.U. after   18 cycles
 SCF Done:  E(RB3LYP) =  -665.525972327     A.U. after   19 cycles
 SCF Done:  E(RB3LYP) =  -665.619361583     A.U. after   16 cycles
 SCF Done:  E(RB3LYP) =  -665.660786913     A.U. after   16 cycles
 SCF Done:  E(RB3LYP) =  -665.733360539     A.U. after   15 cycles
 SCF Done:  E(RB3LYP) =  -665.940507138     A.U. after   13 cycles
 SCF Done:  E(RB3LYP) =  -665.942153271     A.U. after   12 cycles
 SCF Done:  E(RB3LYP) =  -665.942710346     A.U. after   12 cycles
 SCF Done:  E(RB3LYP) =  -665.942744046     A.U. after   11 cycles
 SCF Done:  E(RB3LYP) =  -665.942801113     A.U. after   10 cycles
 SCF Done:  E(RB3LYP) =  -665.942814840     A.U. after    9 cycles
 SCF Done:  E(RB3LYP) =  -665.942823012     A.U. after    9 cycles
 SCF Done:  E(RB3LYP) =  -665.942825759     A.U. after    8 cycles
 SCF Done:  E(RB3LYP) =  -665.942826735     A.U. after    7 cycles
 Optimization completed.
    -- Stationary point found.
 Normal termination of Gaussian 16 at Thu May 18 17:01:22 2023.

 ----------------------------------------------------------------------
 #N Geom=AllCheck Guess=TCheck SCRF=Check GenChk RB3LYP/6-31G(2df,p) Fr
 eq
 ----------------------------------------------------------------------

 Structure from the checkpoint file:  "Cc1c2c3cqcnc1dNrCqdC2rCdCNdCC3.chk"
 -------------------
 Title Card Required
 -------------------
 Charge =  0 Multiplicity = 1

                         Standard orientation:
 ---------------------------------------------------------------------
 Center     Atomic      Atomic             Coordinates (Angstroms)
 Number     Number       Type             X           Y           Z
 ---------------------------------------------------------------------
      1          6           0       -3.435120   -1.065874   -0.473647
      2          6           0       -2.233734   -0.149869   -0.528405
      3          6           0       -0.885850   -0.747629   -0.716178
      4          6           0        0.371808    0.027190   -0.338235
      5          6           0        0.284395   -0.033844    1.121136
      6          6           0       -0.601634    0.524815    1.944977
      7          7           0       -1.455768    1.538116    1.357095
      8          6           0       -2.055689    1.037707    0.358929
      9          7           0       -2.617205    1.303230   -0.856215
     10          6           0        0.813134   -1.292695    0.402252
     11          6           0       -0.422158   -1.932938   -0.214605
     12          6           0        2.250336   -1.379929    0.176659
     13          6           0        2.967969   -0.376982    0.727932
     14          7           0        3.648459    0.530098   -0.119714
     15          6           0        2.833382    1.004908   -0.988277
     16          6           0        1.309743    0.838963   -1.224011
     17          1           0       -3.270275   -1.871736    0.247260
     18          1           0       -3.615335   -1.519585   -1.453661
     19          1           0       -4.327015   -0.508841   -0.183064
     20          1           0       -0.751160    0.276754    2.989365
     21          1           0       -2.065891    1.871902   -1.495509
     22          1           0       -0.945221   -2.847203    0.046283
     23          1           0        2.536437   -1.721405   -0.818885
     24          1           0        2.820920   -0.044410    1.751704
     25          1           0        3.251996    1.719875   -1.703356
     26          1           0        1.225629    0.450981   -2.249788
     27          1           0        0.932027    1.870628   -1.289661
 ---------------------------------------------------------------------

 SCF Done:  E(RB3LYP) =  -665.942826735     A.U. after    1 cycles

 The electronic state is 1-A.
 Alpha  occ. eigenvalues --  -14.37058 -14.33286 -14.33283 -10.27523 -10.25880
 Alpha  occ. eigenvalues --  -10.24482 -10.23365 -10.22110 -10.22076 -10.21792
 Alpha  occ. eigenvalues --  -10.21624 -10.20828 -10.20492 -10.20201 -10.19607
 Alpha  occ. eigenvalues --  -10.18465  -1.01274  -0.94933  -0.92975  -0.91221
 Alpha  occ. eigenvalues --   -0.78938  -0.77455  -0.74998  -0.74057  -0.68497
 Alpha  occ. eigenvalues --   -0.67133  -0.64929  -0.60765  -0.57778  -0.54533
 Alpha  occ. eigenvalues --   -0.53891  -0.50866  -0.49878  -0.48885  -0.47187
 Alpha  occ. eigenvalues --   -0.45790  -0.44936  -0.44513  -0.44219  -0.43791
 Alpha  occ. eigenvalues --   -0.41092  -0.39513  -0.39129  -0.37691  -0.37132
 Alpha  occ. eigenvalues --   -0.35632  -0.31961  -0.31348  -0.30122  -0.29801
 Alpha  occ. eigenvalues --   -0.28967  -0.27709  -0.26661  -0.20947  -0.19035
 Alpha virt. eigenvalues --   -0.05723  -0.02925  -0.01157   0.00917   0.03161
 Alpha virt. eigenvalues --    0.06551   0.08018   0.09986   0.10290   0.11247
 Alpha virt. eigenvalues --    0.12305   0.13116   0.14397   0.15023   0.15661

 Mulliken charges:
               1
     1  C   -0.452174
     2  C    0.155606
     3  C    0.028172
     4  C    0.202325
     5  C    0.180141
     6  C   -0.253257
     7  N   -0.318919
     8  C    0.360843
     9  N   -0.417392
    10  C    0.115225
    11  C   -0.246326
    12  C   -0.223692
    13  C   -0.066613
    14  N   -0.187549
    15  C    0.048747
    16  C   -0.411038
    17  H    0.134706
    18  H    0.133291
    19  H    0.140734
    20  H    0.114160
    21  H    0.261990
    22  H    0.103500
    23  H    0.097086
    24  H    0.118832
    25  H    0.111800
    26  H    0.136257
    27  H    0.133544
 Sum of Mulliken charges =   0.00000

 Dipole moment (field-independent basis, Debye):
    X=             -2.2281    Y=             -0.8267    Z=             -2.2040  Tot=              3.2412
 Quadrupole moment (field-independent basis, Debye-Ang):
   XX=           -103.5596   YY=            -92.5466   ZZ=            -86.4238
   XY=              5.3271   XZ=             -1.0560   YZ=             -6.0736

  Exact polarizability: 172.062  -1.038 135.033   3.651  -1.317 126.243
 Approx polarizability: 262.990 -17.494 265.180  23.320   6.713 239.149

                      1                      2                      3
                      A                      A                      A
 Frequencies --     96.0782               110.0354               137.7084
 Red. masses --      4.6150                 4.4139                 2.6667
 Frc consts  --      0.0251                 0.0315                 0.0298
 IR Inten    --      0.4054                 0.4057                 4.0445

                      4                      5                      6
                      A                      A                      A
 Frequencies --    165.3734               188.2486               231.4941
 Red. masses --      1.2027                 3.0710                 2.5802
 Frc consts  --      0.0194                 0.0641                 0.0815
 IR Inten    --      0.2293                 0.1600                 1.7208

                      7                      8                      9
                      A                      A                      A
 Frequencies --    258.2685               289.2447               314.0391
 Red. masses --      3.1496                 3.1391                 4.2005
 Frc consts  --      0.1238                 0.1547                 0.2441
 IR Inten    --      2.0895                11.9600                 0.2158

                     10                     11                     12
                      A                      A                      A
 Frequencies --    323.8504               363.3709               376.7776
 Red. masses --      2.9231                 4.0288                 5.4345
 Frc consts  --      0.1806                 0.3134                 0.4545
 IR Inten    --      2.1038                 4.0183                 0.7705

                     13                     14                     15
                      A                      A                      A
 Frequencies --    410.4696               440.9571               457.4882
 Red. masses --      5.2565                 4.2132                 3.3998
 Frc consts  --      0.5218                 0.4827                 0.4192
 IR Inten    --     13.0395                 3.3706                15.4021

                     16                     17                     18
                      A                      A                      A
 Frequencies --    515.1369               526.3203               551.2440
 Red. masses --      2.9846                 4.0250                 3.5833
 Frc consts  --      0.4666                 0.6569                 0.6415
 IR Inten    --     57.5381                 1.5315                25.1864

                     19                     20                     21
                      A                      A                      A
 Frequencies --    553.2085               599.3705               633.1464
 Red. masses --      4.7509                 4.4057                 3.6922
 Frc consts  --      0.8567                 0.9325                 0.8720
 IR Inten    --     14.8631                20.0260                17.1980

                     22                     23                     24
                      A                      A                      A
 Frequencies --    668.4977               695.3918               736.3020
 Red. masses --      4.0009                 5.7794                 3.2755
 Frc consts  --      1.0534                 1.6466                 1.0462
 IR Inten    --     45.8387                 5.5546               102.0982

                     25                     26                     27
                      A                      A                      A
 Frequencies --    753.0248               770.3440               800.5003
 Red. masses --      2.3500                 3.1781                 3.3137
 Frc consts  --      0.7851                 1.1112                 1.2511
 IR Inten    --     10.6804                61.3903                25.7529

                     28                     29                     30
                      A                      A                      A
 Frequencies --    801.8678               829.0286               843.4806
 Red. masses --      2.3419                 2.6813                 3.0696
 Frc consts  --      0.8872                 1.0858                 1.2867
 IR Inten    --     48.3840                15.9838                69.3801

                     31                     32                     33
                      A                      A                      A
 Frequencies --    861.7440               880.6953               885.3415
 Red. masses --      2.5036                 2.0098                 2.9180
 Frc consts  --      1.0954                 0.9184                 1.3476
 IR Inten    --      3.3636                41.8433                13.0126

                     34                     35                     36
                      A                      A                      A
 Frequencies --    905.5410               932.4187               958.7204
 Red. masses --      2.3786                 2.2354                 2.2016
 Frc consts  --      1.1492                 1.1451                 1.1923
 IR Inten    --     12.2498                23.1506                13.9303

                     37                     38                     39
                      A                      A                      A
 Frequencies --    982.3743              1012.0846              1027.4826
 Red. masses --      2.1630                 2.8719                 2.0178
 Frc consts  --      1.2299                 1.7332                 1.2551
 IR Inten    --     27.6967                 3.9019                25.5592

                     40                     41                     42
                      A                      A                      A
 Frequencies --   1069.5608              1074.2100              1075.2600
 Red. masses --      2.6834                 1.6635                 1.9397
 Frc consts  --      1.8086                 1.1310                 1.3213
 IR Inten    --     10.9776                 8.3349                34.1871

                     43                     44                     45
                      A                      A                      A
 Frequencies --   1111.6774              1166.4718              1197.6927
 Red. masses --      2.8924                 3.7397                 1.9991
 Frc consts  --      2.1060                 2.9980                 1.6896
 IR Inten    --      4.5336                24.8471                10.5692

                     46                     47                     48
                      A                      A                      A
 Frequencies --   1218.6534              1229.6217              1252.9718
 Red. masses --      2.1071                 2.2342                 1.3443
 Frc consts  --      1.8437                 1.9903                 1.2434
 IR Inten    --      4.9255                 1.9145                 9.1205

                     49                     50                     51
                      A                      A                      A
 Frequencies --   1262.3299              1273.3229              1299.5671
 Red. masses --      1.3814                 2.7851                 1.3704
 Frc consts  --      1.2969                 2.6605                 1.3636
 IR Inten    --      1.6901                11.8253                 5.6933

                     52                     53                     54
                      A                      A                      A
 Frequencies --   1321.0590              1330.8103              1343.2814
 Red. masses --      1.8294                 3.0250                 2.0282
 Frc consts  --      1.8811                 3.1565                 2.1562
 IR Inten    --      2.6539                 4.2957                 5.9520

                     55                     56                     57
                      A                      A                      A
 Frequencies --   1409.3022              1412.6005              1448.1662
 Red. masses --      1.2520                 1.2675                 1.0992
 Frc consts  --      1.4651                 1.4902                 1.3581
 IR Inten    --      5.9074                 5.1580                 8.8168

                     58                     59                     60
                      A                      A                      A
 Frequencies --   1485.5050              1491.6995              1529.3647
 Red. masses --      1.0471                 1.0719                 6.4052
 Frc consts  --      1.3615                 1.4053                 8.8269
 IR Inten    --      4.4402                 4.2434                 8.7497

                     61                     62                     63
                      A                      A                      A
 Frequencies --   1600.1069              1649.4446              1699.7948
 Red. masses --      5.7447                 7.1753                 9.6459
 Frc consts  --      8.6659                11.5018                16.4205
 IR Inten    --     29.2451                37.0220                15.7182

                     64                     65                     66
                      A                      A                      A
 Frequencies --   1796.2232              2997.8322              3024.7101
 Red. masses --     10.6950                 1.0615                 1.0965
 Frc consts  --     20.3307                 5.6208                 5.9107
 IR Inten    --    165.3629                11.1884                 5.7018

                     67                     68                     69
                      A                      A                      A
 Frequencies --   3044.8215              3084.3697              3108.9208
 Red. masses --      1.0368                 1.0871                 1.0871
 Frc consts  --      5.6632                 6.0934                 6.1907
 IR Inten    --     19.2864                41.7784                19.7355

                     70                     71                     72
                      A                      A                      A
 Frequencies --   3109.3469              3141.7711              3166.6081
 Red. masses --      1.0997                 1.1013                 1.0876
 Frc consts  --      6.2643                 6.4047                 6.4253
 IR Inten    --     13.4306                 7.3847                 6.7281

                     73                     74                     75
                      A                      A                      A
 Frequencies --   3172.4624              3193.9299              3499.8137
 Red. masses --      1.0949                 1.0922                 1.0764
 Frc consts  --      6.4926                 6.5642                 7.7683
 IR Inten    --     27.8650                 9.7118                 9.6376

 - Thermochemistry -
 -------------------
 Temperature   298.150 Kelvin.  Pressure   1.00000 Atm.
 Atom     1 has atomic number  6 and mass  12.00000

 Molecular mass:   209.09530 amu.
 Principal axes and moments of inertia in atomic units:
                           1         2         3
     Eigenvalues --  1473.393814026.823814234.76206
           X            0.99976   0.02190  -0.00249
           Y           -0.02203   0.99571  -0.08989
           Z            0.00051   0.08993   0.99595
 This molecule is an asymmetric top.
 Rotational symmetry number  1.
 Warning -- assumption of classical behavior for rotation
           may cause significant error
 Rotational temperatures (Kelvin)      0.05879     0.02151     0.02045
 Rotational constants (GHZ):           1.22489     0.44818     0.42617
 Zero-point vibrational energy     545377.2 (Joules/Mol)
                                  130.34829 (Kcal/Mol)
 Warning -- explicit consideration of  20 degrees of freedom as
           vibrations may cause significant error
 Vibrational temperatures:    138.24   158.32   198.13   237.94   270.85
          (Kelvin)            333.07   371.59   416.16   451.83   465.95
                              522.81   542.10   590.57   634.44   658.22
                              741.17   757.26   793.12   795.94   862.36
                              910.96   961.82  1000.51  1059.37  1083.43
                             1108.35  1151.74  1153.71  1192.79  1213.58
                             1239.86  1267.12  1273.81  1302.87  1341.54
                             1379.38  1413.42  1456.16  1478.32  1538.86
                             1545.55  1547.06  1599.46  1678.29  1723.21
                             1753.37  1769.15  1802.75  1816.21  1832.03
                             1869.79  1900.71  1914.74  1932.68  2027.67
                             2032.42  2083.59  2137.31  2146.22  2200.41
                             2302.20  2373.18  2445.63  2584.36  4313.21
                             4351.88  4380.82  4437.72  4473.04  4473.66
                             4520.31  4556.04  4564.47  4595.35  5035.45

 Zero-point correction=                           0.207723 (Hartree/Particle)
 Thermal correction to Energy=                    0.220236
 Thermal correction to Enthalpy=                  0.221180
 Thermal correction to Gibbs Free Energy=         0.170164
 Sum of electronic and zero-point Energies=           -665.735104
 Sum of electronic and thermal Energies=              -665.722590
 Sum of electronic and thermal Enthalpies=            -665.721646
 Sum of electronic and thermal Free Energies=         -665.772662

                     E (Thermal)             CV                S
                      KCal/Mol        Cal/Mol-Kelvin    Cal/Mol-Kelvin
 Total                  138.200             52.148            107.372
 Electronic               0.000              0.000              0.000
 Translational            0.889              2.981             41.917
 Rotational               0.889              2.981             31.597
 Vibrational            136.423             46.187             33.859
 Vibration     1          0.603              1.952              3.532
 Vibration     2          0.606              1.941              3.268
 Vibration     3          0.614              1.916              2.835
 Vibration     4          0.624              1.885              2.487
 Vibration     5          0.633              1.856              2.245
 Vibration     6          0.653              1.793              1.867
 Vibration     7          0.667              1.749              1.673
 Vibration     8          0.686              1.694              1.478
 Vibration     9          0.702              1.647              1.341
 Vibration    10          0.708              1.628              1.291
 Vibration    11          0.737              1.548              1.108
 Vibration    12          0.747              1.520              1.052
 Vibration    13          0.775              1.447              0.925
 Vibration    14          0.801              1.381              0.824
 Vibration    15          0.816              1.344              0.773
 Vibration    16          0.870              1.216              0.621
 Vibration    17          0.881              1.192              0.595
 Vibration    18          0.907              1.137              0.542
 Vibration    19          0.909              1.133              0.538
 Vibration    20          0.957              1.033              0.451

                           ! Non-Optimized Parameters !
 Normal termination of Gaussian 16 at Thu May 18 19:49:54 2023.
