 Gaussian 16, Revision A.03,
 Gaussian 16:  ES64L-G16RevA.03 25-Dec-2016

 -----------------------------
 # opt freq b3lyp/6-31g(2df,p)
 -----------------------------

 -------------------
 Title Card Required
 -------------------
 Symbolic Z-matrix:
 Charge =  0 Multiplicity = 1

 SCF Done:  E(RB3LYP) =  -820.368538368     A.U. after   29 cycles
 SCF Done:  E(RB3LYP) =  -820.472304645     A.U. after   19 cycles
 SCF Done:  E(RB3LYP) =  -820.581054396     A.U. after   18 cycles
 SCF Done:  E(RB3LYP) =  -820.666507336     A.U. after   18 cycles
 SCF Done:  E(RB3LYP) =  -820.739321310     A.U. after   17 cycles
 SCF Done:  E(RB3LYP) =  -820.765965030     A.U. after   16 cycles
 SCF Done:  E(RB3LYP) =  -820.793881965     A.U. after   17 cycles
 SCF Done:  E(RB3LYP) =  -820.839835401     A.U. after   18 cycles
 SCF Done:  E(RB3LYP) =  -820.884316374     A.U. after   17 cycles
 SCF Done:  E(RB3LYP) =  -820.918905263     A.U. after   15 cycles
 SCF Done:  E(RB3LYP) =  -821.025979891     A.U. after   13 cycles
 SCF Done:  E(RB3LYP) =  -821.026091285     A.U. after   11 cycles
 SCF Done:  E(RB3LYP) =  -821.026121104     A.U. after   12 cycles
 SCF Done:  E(RB3LYP) =  -821.026148132     A.U. after   10 cycles
 SCF Done:  E(RB3LYP) =  -821.026155615     A.U. after    9 cycles
 SCF Done:  E(RB3LYP) =  -821.026158373     A.U. after    9 cycles
 SCF Done:  E(RB3LYP) =  -821.026159220     A.U. after    8 cycles
 SCF Done:  E(RB3LYP) =  -821.026159741     A.U. after    7 cycles
 SCF Done:  E(RB3LYP) =  -821.026159968     A.U. after    7 cycles
 Optimization completed.
    -- Stationary point found.
 Normal termination of Gaussian 16 at Thu May 18 21:17:36 2023.

 ----------------------------------------------------------------------
 #N Geom=AllCheck Guess=TCheck SCRF=Check GenChk RB3LYP/6-31G(2df,p) Fr
 eq
 ----------------------------------------------------------------------

 Structure from the checkpoint file:  "CC1CNdNC2dCCdC3CdCCqdC31rCqdOrNCCC2.chk"
 -------------------
 Title Card Required
 -------------------
 Charge =  0 Multiplicity = 1

                         Standard orientation:
 ---------------------------------------------------------------------
 Center     Atomic      Atomic             Coordinates (Angstroms)
 Number     Number       Type             X           Y           Z
 ---------------------------------------------------------------------
      1          6           0        3.692274   -0.007893    0.838716
      2          6           0        2.818906    0.124085   -0.421629
      3          6           0        2.247225    1.594042   -0.593177
      4          7           0        1.014662    1.609006    0.235072
      5          7           0       -0.126584    2.370941   -0.147869
      6          6           0       -1.190566    1.967252    0.500690
      7          6           0       -1.089158    1.089026    1.676300
      8          6           0       -0.232265    0.087790    1.503814
      9          6           0        0.515214    0.246535    0.218283
     10          6           0        0.044592    0.095835   -1.265320
     11          6           0        0.716946   -1.010780   -1.711038
     12          6           0        0.904087   -1.990233   -0.565515
     13          6           0        1.560606   -0.733948   -0.245091
     14          6           0       -0.351781   -2.272232    0.220417
     15          8           0       -0.261672   -2.985988    1.211703
     16          7           0       -1.680060   -1.856420   -0.101848
     17          6           0       -2.456871   -0.875064   -0.893189
     18          6           0       -3.106911    0.416546   -0.211240
     19          6           0       -2.538384    1.907406   -0.181803
     20          1           0        4.576509    0.630432    0.752408
     21          1           0        4.021410   -1.041562    0.970844
     22          1           0        3.141234    0.295345    1.733930
     23          1           0        3.407297   -0.156309   -1.298328
     24          1           0        2.040577    1.809515   -1.649031
     25          1           0        2.961977    2.335592   -0.227942
     26          1           0       -1.750858    1.209628    2.526415
     27          1           0       -0.036788   -0.730747    2.182859
     28          1           0       -0.306001    0.926867   -1.865298
     29          1           0        1.117683   -1.159913   -2.710397
     30          1           0       -2.267659   -2.336878    0.567878
     31          1           0       -3.337278   -1.439248   -1.226083
     32          1           0       -1.940604   -0.614982   -1.813941
     33          1           0       -3.358262    0.137695    0.816725
     34          1           0       -4.068723    0.523424   -0.727933
     35          1           0       -3.308539    2.483669    0.347106
     36          1           0       -2.458216    2.320483   -1.191633
 ---------------------------------------------------------------------

 SCF Done:  E(RB3LYP) =  -821.026159968     A.U. after    1 cycles

 The electronic state is 1-A.
 Alpha  occ. eigenvalues --  -19.07716 -14.37190 -14.36049 -14.32984 -10.26153
 Alpha  occ. eigenvalues --  -10.25427 -10.24650 -10.23296 -10.23208 -10.23108
 Alpha  occ. eigenvalues --  -10.23059 -10.22933 -10.22776 -10.20784 -10.20547
 Alpha  occ. eigenvalues --  -10.19667 -10.19095 -10.18980 -10.16750  -1.02661
 Alpha  occ. eigenvalues --   -1.00618  -0.93539  -0.88374  -0.86073  -0.80973
 Alpha  occ. eigenvalues --   -0.80022  -0.77201  -0.71836  -0.70918  -0.70246
 Alpha  occ. eigenvalues --   -0.67674  -0.63003  -0.62416  -0.60168  -0.58452
 Alpha  occ. eigenvalues --   -0.57074  -0.54265  -0.51554  -0.50005  -0.49744
 Alpha  occ. eigenvalues --   -0.48484  -0.48161  -0.47299  -0.46024  -0.44804
 Alpha  occ. eigenvalues --   -0.43713  -0.42825  -0.41881  -0.41559  -0.40604
 Alpha  occ. eigenvalues --   -0.40412  -0.39816  -0.38360  -0.37936  -0.36696
 Alpha  occ. eigenvalues --   -0.36268  -0.35663  -0.35141  -0.34324  -0.32699
 Alpha  occ. eigenvalues --   -0.31605  -0.30904  -0.28100  -0.26540  -0.23168
 Alpha  occ. eigenvalues --   -0.22219  -0.21440  -0.18525
 Alpha virt. eigenvalues --   -0.05556  -0.04202   0.01123   0.02890   0.04330
 Alpha virt. eigenvalues --    0.07991   0.08350   0.09795   0.10877   0.11168
 Alpha virt. eigenvalues --    0.11610   0.12874   0.13084   0.13609   0.14060

 Mulliken charges:
               1
     1  C   -0.402992
     2  C   -0.119807
     3  C   -0.188367
     4  N   -0.109421
     5  N   -0.248638
     6  C    0.224207
     7  C   -0.178692
     8  C   -0.145358
     9  C    0.322057
    10  C   -0.076721
    11  C   -0.142122
    12  C   -0.325937
    13  C    0.205490
    14  C    0.324496
    15  O   -0.394279
    16  N   -0.298020
    17  C   -0.156489
    18  C   -0.200549
    19  C   -0.292051
    20  H    0.122437
    21  H    0.144046
    22  H    0.139667
    23  H    0.103566
    24  H    0.110296
    25  H    0.120846
    26  H    0.111551
    27  H    0.155234
    28  H    0.150937
    29  H    0.116759
    30  H    0.231148
    31  H    0.110917
    32  H    0.131769
    33  H    0.115581
    34  H    0.105724
    35  H    0.115959
    36  H    0.116754
 Sum of Mulliken charges =  -0.00000

 Dipole moment (field-independent basis, Debye):
    X=             -0.9869    Y=              4.0302    Z=             -2.1299  Tot=              4.6640
 Quadrupole moment (field-independent basis, Debye-Ang):
   XX=            -93.5719   YY=           -134.1030   ZZ=           -106.6609
   XY=              3.0361   XZ=             -2.1246   YZ=              4.1382

  Exact polarizability: 203.040  -8.451 170.772  -4.659  -4.197 142.528
 Approx polarizability: 312.711 -26.993 317.955  -5.310 -21.664 264.029

                      1                      2                      3
                      A                      A                      A
 Frequencies --     95.3527               121.8194               131.8453
 Red. masses --      3.3813                 4.1397                 7.6594
 Frc consts  --      0.0181                 0.0362                 0.0784
 IR Inten    --      1.3544                 3.6984                 1.1831

                      4                      5                      6
                      A                      A                      A
 Frequencies --    166.2615               168.2754               221.7363
 Red. masses --      3.2445                 3.9745                 3.7657
 Frc consts  --      0.0528                 0.0663                 0.1091
 IR Inten    --      0.8042                 0.8851                 2.2007

                      7                      8                      9
                      A                      A                      A
 Frequencies --    228.9451               236.7383               242.5818
 Red. masses --      1.9556                 1.4853                 3.5279
 Frc consts  --      0.0604                 0.0490                 0.1223
 IR Inten    --      2.7378                 1.1932                 4.8107

                     10                     11                     12
                      A                      A                      A
 Frequencies --    268.9794               290.3477               313.4480
 Red. masses --      2.9871                 3.5815                 2.9726
 Frc consts  --      0.1273                 0.1779                 0.1721
 IR Inten    --      5.8694                 3.4169                 7.0768

                     13                     14                     15
                      A                      A                      A
 Frequencies --    319.4512               353.5436               377.3262
 Red. masses --      2.7722                 3.0394                 2.9665
 Frc consts  --      0.1667                 0.2238                 0.2488
 IR Inten    --      0.5699                 2.5373                11.4682

                     16                     17                     18
                      A                      A                      A
 Frequencies --    392.1649               433.1390               451.2525
 Red. masses --      3.0604                 3.1401                 2.6945
 Frc consts  --      0.2773                 0.3471                 0.3233
 IR Inten    --      5.3600                 3.5446                 0.8162

                     19                     20                     21
                      A                      A                      A
 Frequencies --    465.7794               472.0562               496.8464
 Red. masses --      3.2993                 4.1713                 5.6438
 Frc consts  --      0.4217                 0.5477                 0.8209
 IR Inten    --      9.7980                15.8567                 1.4746

                     22                     23                     24
                      A                      A                      A
 Frequencies --    508.7161               539.5522               571.6885
 Red. masses --      3.9801                 3.9459                 3.2843
 Frc consts  --      0.6069                 0.6768                 0.6324
 IR Inten    --      6.3342                10.0256                 4.8525

                     25                     26                     27
                      A                      A                      A
 Frequencies --    589.9021               607.1737               637.1265
 Red. masses --      3.5345                 2.3393                 4.5109
 Frc consts  --      0.7247                 0.5081                 1.0788
 IR Inten    --     24.8971                42.2508                19.5681

                     28                     29                     30
                      A                      A                      A
 Frequencies --    664.1752               671.3952               679.2525
 Red. masses --      2.1184                 3.0502                 4.9660
 Frc consts  --      0.5506                 0.8101                 1.3500
 IR Inten    --     31.3882                 4.5335                 2.2112

                     31                     32                     33
                      A                      A                      A
 Frequencies --    708.2188               753.3978               763.8337
 Red. masses --      4.0008                 3.3202                 3.0098
 Frc consts  --      1.1823                 1.1104                 1.0346
 IR Inten    --      6.2133                 4.6856                10.3317

                     34                     35                     36
                      A                      A                      A
 Frequencies --    777.5118               803.8316               824.5692
 Red. masses --      2.5333                 5.7556                 2.8512
 Frc consts  --      0.9023                 2.1911                 1.1422
 IR Inten    --      3.5229                12.2103                 4.5058

                     37                     38                     39
                      A                      A                      A
 Frequencies --    829.3849               851.5834               884.0856
 Red. masses --      2.0919                 2.6810                 2.7318
 Frc consts  --      0.8478                 1.1455                 1.2580
 IR Inten    --     12.2408                13.5014                27.0530

                     40                     41                     42
                      A                      A                      A
 Frequencies --    901.5633               915.1996               937.4904
 Red. masses --      3.1924                 2.8879                 1.7743
 Frc consts  --      1.5289                 1.4251                 0.9188
 IR Inten    --     23.0113                18.7841                 4.4985

                     43                     44                     45
                      A                      A                      A
 Frequencies --    946.2108               966.6181               972.0441
 Red. masses --      2.7374                 2.2948                 2.7111
 Frc consts  --      1.4440                 1.2633                 1.5093
 IR Inten    --     14.9718                 6.8669                 3.3455

                     46                     47                     48
                      A                      A                      A
 Frequencies --    975.9303              1004.5038              1008.5401
 Red. masses --      1.4580                 2.1912                 2.4112
 Frc consts  --      0.8182                 1.3027                 1.4450
 IR Inten    --      0.1709                38.6669                 2.2796

                     49                     50                     51
                      A                      A                      A
 Frequencies --   1033.6163              1046.0123              1066.3012
 Red. masses --      2.2072                 1.9665                 2.3126
 Frc consts  --      1.3894                 1.2677                 1.5492
 IR Inten    --     45.5759                 3.1977                12.5185

                     52                     53                     54
                      A                      A                      A
 Frequencies --   1096.2888              1099.5788              1126.1323
 Red. masses --      2.7397                 2.2456                 1.8491
 Frc consts  --      1.9400                 1.5997                 1.3816
 IR Inten    --     61.0930                12.4481                 0.1353

                     55                     56                     57
                      A                      A                      A
 Frequencies --   1129.9440              1145.9489              1148.1985
 Red. masses --      1.3514                 1.6960                 2.3636
 Frc consts  --      1.0166                 1.3122                 1.8360
 IR Inten    --     29.3579                14.4770                98.8515

                     58                     59                     60
                      A                      A                      A
 Frequencies --   1191.5141              1205.3506              1215.4312
 Red. masses --      1.6932                 1.3829                 2.3435
 Frc consts  --      1.4163                 1.1838                 2.0398
 IR Inten    --     45.3732                 0.6530                 4.9243

                     61                     62                     63
                      A                      A                      A
 Frequencies --   1226.2464              1247.0136              1262.0808
 Red. masses --      2.0662                 1.3402                 1.8782
 Frc consts  --      1.8305                 1.2279                 1.7627
 IR Inten    --     41.1204                 0.2759                10.7137

                     64                     65                     66
                      A                      A                      A
 Frequencies --   1279.1802              1289.4899              1315.0892
 Red. masses --      1.5876                 1.3589                 3.7098
 Frc consts  --      1.5306                 1.3313                 3.7802
 IR Inten    --      5.5496                29.1577                15.6318

                     67                     68                     69
                      A                      A                      A
 Frequencies --   1326.0883              1333.4241              1349.9985
 Red. masses --      1.8423                 1.2975                 1.1886
 Frc consts  --      1.9088                 1.3592                 1.2763
 IR Inten    --     16.8124                 6.8604                 4.3973

                     70                     71                     72
                      A                      A                      A
 Frequencies --   1354.7447              1377.7199              1396.0821
 Red. masses --      1.9349                 1.2744                 1.1884
 Frc consts  --      2.0923                 1.4252                 1.3647
 IR Inten    --     16.9737                 3.2221                 7.1278

                     73                     74                     75
                      A                      A                      A
 Frequencies --   1406.1170              1409.8515              1459.0192
 Red. masses --      2.0828                 1.3048                 1.0925
 Frc consts  --      2.4263                 1.5280                 1.3702
 IR Inten    --      6.1526                 3.5145                 7.7541

                     76                     77                     78
                      A                      A                      A
 Frequencies --   1473.2448              1475.8230              1489.5576
 Red. masses --      1.1205                 1.2664                 3.9911
 Frc consts  --      1.4328                 1.6252                 5.2174
 IR Inten    --      3.4535                 8.9976                 5.8299

                     79                     80                     81
                      A                      A                      A
 Frequencies --   1494.1390              1494.7507              1499.2759
 Red. masses --      1.0441                 1.2069                 1.0630
 Frc consts  --      1.3733                 1.5887                 1.4078
 IR Inten    --      6.1032                16.1724                 4.4341

                     82                     83                     84
                      A                      A                      A
 Frequencies --   1517.1217              1533.4265              1681.0741
 Red. masses --      1.1123                 6.7217                 7.1324
 Frc consts  --      1.5084                 9.3123                11.8757
 IR Inten    --      7.8080                 9.2882                11.9248

                     85                     86                     87
                      A                      A                      A
 Frequencies --   1704.5271              3009.9534              3020.8877
 Red. masses --      6.1473                 1.0730                 1.0669
 Frc consts  --     10.5231                 5.7277                 5.7364
 IR Inten    --    266.4047                 9.6109                25.1742

                     88                     89                     90
                      A                      A                      A
 Frequencies --   3022.9899              3038.5761              3043.1886
 Red. masses --      1.0658                 1.0668                 1.0346
 Frc consts  --      5.7385                 5.8032                 5.6453
 IR Inten    --     42.3905                83.2023                16.4436

                     91                     92                     93
                      A                      A                      A
 Frequencies --   3078.0558              3081.8020              3093.0254
 Red. masses --      1.0978                 1.0865                 1.0993
 Frc consts  --      6.1279                 6.0799                 6.1961
 IR Inten    --      5.1471                13.1595                25.1181

                     94                     95                     96
                      A                      A                      A
 Frequencies --   3095.1480              3116.6951              3127.2884
 Red. masses --      1.0975                 1.1015                 1.1025
 Frc consts  --      6.1947                 6.3039                 6.3529
 IR Inten    --     20.2745                25.4083                11.6048

                     97                     98                     99
                      A                      A                      A
 Frequencies --   3143.3892              3146.8316              3189.9669
 Red. masses --      1.0910                 1.0859                 1.0885
 Frc consts  --      6.3515                 6.3357                 6.5261
 IR Inten    --     21.1670                18.4593                 4.5384

                    100                    101                    102
                      A                      A                      A
 Frequencies --   3197.2264              3230.2429              3565.5583
 Red. masses --      1.0957                 1.1009                 1.0742
 Frc consts  --      6.5991                 6.7681                 8.0465
 IR Inten    --      2.8980                 2.5852                13.6120

 - Thermochemistry -
 -------------------
 Temperature   298.150 Kelvin.  Pressure   1.00000 Atm.
 Atom     1 has atomic number  6 and mass  12.00000

 Molecular mass:   255.13716 amu.
 Principal axes and moments of inertia in atomic units:
                           1         2         3
     Eigenvalues --  2959.222383846.378375284.65270
           X            0.99996   0.00315   0.00869
           Y           -0.00312   0.99999  -0.00283
           Z           -0.00870   0.00280   0.99996
 This molecule is an asymmetric top.
 Rotational symmetry number  1.
 Warning -- assumption of classical behavior for rotation
           may cause significant error
 Rotational temperatures (Kelvin)      0.02927     0.02252     0.01639
 Rotational constants (GHZ):           0.60987     0.46921     0.34151
 Zero-point vibrational energy     775429.1 (Joules/Mol)
                                  185.33200 (Kcal/Mol)
 Warning -- explicit consideration of  26 degrees of freedom as
           vibrations may cause significant error
 Vibrational temperatures:    137.19   175.27   189.70   239.21   242.11
          (Kelvin)            319.03   329.40   340.61   349.02   387.00
                              417.75   450.98   459.62   508.67   542.89
                              564.24   623.19   649.25   670.15   679.18
                              714.85   731.93   776.30   822.53   848.74
                              873.59   916.68   955.60   965.99   977.29
                             1018.97  1083.97  1098.99  1118.67  1156.53
                             1186.37  1193.30  1225.24  1272.00  1297.15
                             1316.77  1348.84  1361.39  1390.75  1398.55
                             1404.15  1445.26  1451.06  1487.14  1504.98
                             1534.17  1577.32  1582.05  1620.25  1625.74
                             1648.76  1652.00  1714.32  1734.23  1748.73
                             1764.30  1794.17  1815.85  1840.46  1855.29
                             1892.12  1907.95  1918.50  1942.35  1949.18
                             1982.23  2008.65  2023.09  2028.46  2099.20
                             2119.67  2123.38  2143.14  2149.73  2150.61
                             2157.12  2182.80  2206.26  2418.69  2452.43
                             4330.65  4346.38  4349.41  4371.83  4378.47
                             4428.64  4434.03  4450.17  4453.23  4484.23
                             4499.47  4522.64  4527.59  4589.65  4600.10
                             4647.60  5130.04

 Zero-point correction=                           0.295345 (Hartree/Particle)
 Thermal correction to Energy=                    0.310537
 Thermal correction to Enthalpy=                  0.311481
 Thermal correction to Gibbs Free Energy=         0.255560
 Sum of electronic and zero-point Energies=           -820.730815
 Sum of electronic and thermal Energies=              -820.715623
 Sum of electronic and thermal Enthalpies=            -820.714679
 Sum of electronic and thermal Free Energies=         -820.770600

                     E (Thermal)             CV                S
                      KCal/Mol        Cal/Mol-Kelvin    Cal/Mol-Kelvin
 Total                  194.865             65.372            117.696
 Electronic               0.000              0.000              0.000
 Translational            0.889              2.981             42.510
 Rotational               0.889              2.981             32.464
 Vibrational            193.087             59.411             42.722
 Vibration     1          0.603              1.953              3.547
 Vibration     2          0.609              1.931              3.071
 Vibration     3          0.612              1.922              2.919
 Vibration     4          0.624              1.884              2.477
 Vibration     5          0.625              1.882              2.455
 Vibration     6          0.648              1.808              1.945
 Vibration     7          0.652              1.797              1.887
 Vibration     8          0.656              1.784              1.827
 Vibration     9          0.659              1.775              1.784
 Vibration    10          0.673              1.730              1.603
 Vibration    11          0.686              1.692              1.472
 Vibration    12          0.701              1.648              1.344
 Vibration    13          0.705              1.636              1.313
 Vibration    14          0.730              1.568              1.150
 Vibration    15          0.748              1.518              1.050
 Vibration    16          0.760              1.487              0.992
 Vibration    17          0.794              1.398              0.848
 Vibration    18          0.810              1.358              0.792
 Vibration    19          0.823              1.326              0.749
 Vibration    20          0.829              1.312              0.732
 Vibration    21          0.852              1.257              0.666
 Vibration    22          0.864              1.231              0.637
 Vibration    23          0.895              1.163              0.566
 Vibration    24          0.928              1.092              0.501
 Vibration    25          0.947              1.053              0.467
 Vibration    26          0.966              1.017              0.437

 Optimization completed.
    -- Stationary point found.
 Normal termination of Gaussian 16 at Fri May 19 04:32:51 2023.
