 Gaussian 16, Revision A.03,
 Gaussian 16:  ES64L-G16RevA.03 25-Dec-2016

 -----------------------------
 # opt freq b3lyp/6-31g(2df,p)
 -----------------------------

 -------------------
 Title Card Required
 -------------------
 Symbolic Z-matrix:
 Charge =  0 Multiplicity = 1

 SCF Done:  E(RB3LYP) =  -611.400637718     A.U. after   21 cycles
 SCF Done:  E(RB3LYP) =  -611.492153526     A.U. after   16 cycles
 SCF Done:  E(RB3LYP) =  -611.608807473     A.U. after   16 cycles
 SCF Done:  E(RB3LYP) =  -611.693560215     A.U. after   16 cycles
 SCF Done:  E(RB3LYP) =  -611.764848678     A.U. after   16 cycles
 SCF Done:  E(RB3LYP) =  -611.820674451     A.U. after   15 cycles
 SCF Done:  E(RB3LYP) =  -611.908960980     A.U. after   14 cycles
 SCF Done:  E(RB3LYP) =  -611.948860228     A.U. after   14 cycles
 SCF Done:  E(RB3LYP) =  -611.989489633     A.U. after   15 cycles
 SCF Done:  E(RB3LYP) =  -611.996452149     A.U. after   14 cycles
 SCF Done:  E(RB3LYP) =  -612.007156785     A.U. after   10 cycles
 SCF Done:  E(RB3LYP) =  -612.007157580     A.U. after    8 cycles
 SCF Done:  E(RB3LYP) =  -612.007157840     A.U. after    7 cycles
 SCF Done:  E(RB3LYP) =  -612.007157916     A.U. after    7 cycles
 SCF Done:  E(RB3LYP) =  -612.007157982     A.U. after    7 cycles
 SCF Done:  E(RB3LYP) =  -612.007158036     A.U. after    7 cycles
 SCF Done:  E(RB3LYP) =  -612.007158082     A.U. after    6 cycles
 SCF Done:  E(RB3LYP) =  -612.007158119     A.U. after    6 cycles
 SCF Done:  E(RB3LYP) =  -612.007158147     A.U. after    6 cycles
 Optimization completed.
    -- Stationary point found.
 Normal termination of Gaussian 16 at Wed May 17 02:54:33 2023.

 ----------------------------------------------------------------------
 #N Geom=AllCheck Guess=TCheck SCRF=Check GenChk RB3LYP/6-31G(2df,p) Fr
 eq
 ----------------------------------------------------------------------

 Structure from the checkpoint file:  "Cc1cc2cqcn1rNdCdCCdCCCdC2.chk"
 -------------------
 Title Card Required
 -------------------
 Charge =  0 Multiplicity = 1

                         Standard orientation:
 ---------------------------------------------------------------------
 Center     Atomic      Atomic             Coordinates (Angstroms)
 Number     Number       Type             X           Y           Z
 ---------------------------------------------------------------------
      1          6           0       -4.345179   -0.946524   -0.260660
      2          6           0       -3.010885   -0.270046   -0.099306
      3          6           0       -1.863937   -0.976160    0.237225
      4          6           0       -0.602264   -0.366039    0.368219
      5          6           0       -0.588646    1.033438    0.135147
      6          6           0       -1.809972    1.657101   -0.193265
      7          7           0       -2.981998    1.059967   -0.302293
      8          7           0        0.500535    1.907792    0.077775
      9          6           0        1.675659    1.836057    0.392035
     10          6           0        2.976019    1.614927    0.291394
     11          6           0        3.016592    0.482605   -0.668000
     12          6           0        3.330280   -0.786512   -0.378477
     13          6           0        2.356343   -1.856716   -0.820550
     14          6           0        1.508415   -1.961399    0.441186
     15          6           0        0.441782   -1.289363    0.906322
     16          1           0       -4.292891   -2.011872   -0.024645
     17          1           0       -4.706527   -0.834606   -1.288521
     18          1           0       -5.089106   -0.475661    0.389576
     19          1           0       -1.933595   -2.045082    0.410583
     20          1           0       -1.776601    2.728601   -0.376136
     21          1           0        3.714935    1.840499    1.046097
     22          1           0        2.349934    0.632581   -1.516755
     23          1           0        3.944745   -1.020852    0.488779
     24          1           0        1.776829   -1.520511   -1.684593
     25          1           0        2.799480   -2.831237   -1.050629
     26          1           0        1.938645   -2.651483    1.166531
     27          1           0        0.139157   -1.612904    1.903731
 ---------------------------------------------------------------------

 SCF Done:  E(RB3LYP) =  -612.007158147     A.U. after    1 cycles

 The electronic state is 1-A.
 Alpha  occ. eigenvalues --  -14.36071 -14.32250 -10.24924 -10.24208 -10.22683
 Alpha  occ. eigenvalues --  -10.22535 -10.21918 -10.20459 -10.20156 -10.20084
 Alpha  occ. eigenvalues --  -10.19395 -10.19340 -10.19255 -10.18315 -10.18286
 Alpha  occ. eigenvalues --   -0.96466  -0.93876  -0.83439  -0.82768  -0.78982
 Alpha  occ. eigenvalues --   -0.77310  -0.74713  -0.70424  -0.67079  -0.63431
 Alpha  occ. eigenvalues --   -0.62792  -0.57391  -0.56067  -0.52872  -0.50335
 Alpha  occ. eigenvalues --   -0.49429  -0.48104  -0.47423  -0.45030  -0.43401
 Alpha  occ. eigenvalues --   -0.43244  -0.42569  -0.41692  -0.40457  -0.39504
 Alpha  occ. eigenvalues --   -0.38512  -0.37710  -0.36803  -0.35661  -0.34822
 Alpha  occ. eigenvalues --   -0.34094  -0.28815  -0.28060  -0.25532  -0.25286
 Alpha  occ. eigenvalues --   -0.24553  -0.19472
 Alpha virt. eigenvalues --   -0.05746  -0.03542  -0.00495   0.02177   0.02866
 Alpha virt. eigenvalues --    0.07403   0.08905   0.10926   0.11177   0.12923
 Alpha virt. eigenvalues --    0.13513   0.14258   0.15101   0.15758   0.16129

 Mulliken charges:
               1
     1  C   -0.470150
     2  C    0.310594
     3  C   -0.176248
     4  C    0.182472
     5  C    0.116182
     6  C   -0.000828
     7  N   -0.328851
     8  N   -0.319090
     9  C    0.305217
    10  C   -0.341233
    11  C   -0.047154
    12  C   -0.070371
    13  C   -0.321049
    14  C   -0.027983
    15  C   -0.180242
    16  H    0.118576
    17  H    0.142262
    18  H    0.142526
    19  H    0.097622
    20  H    0.120026
    21  H    0.127906
    22  H    0.100400
    23  H    0.086553
    24  H    0.114077
    25  H    0.103496
    26  H    0.099970
    27  H    0.115319
 Sum of Mulliken charges =  -0.00000

 Dipole moment (field-independent basis, Debye):
    X=              0.5484    Y=             -2.5538    Z=              1.1932  Tot=              2.8716
 Quadrupole moment (field-independent basis, Debye-Ang):
   XX=            -88.2744   YY=            -85.8148   ZZ=            -85.3802
   XY=              2.7512   XZ=              2.5319   YZ=              0.6920

  Exact polarizability: 234.367  -0.066 154.063   6.605  -3.318  90.429
 Approx polarizability: 372.765  -9.547 275.892  11.723  -9.432 150.722

                      1                      2                      3
                      A                      A                      A
 Frequencies --     39.7519                73.1080                92.5639
 Red. masses --      3.9693                 1.0400                 3.9973
 Frc consts  --      0.0037                 0.0033                 0.0202
 IR Inten    --      0.1326                 0.3150                 0.8747

                      4                      5                      6
                      A                      A                      A
 Frequencies --    105.3244               168.1512               175.6641
 Red. masses --      4.7387                 3.7237                 4.3026
 Frc consts  --      0.0310                 0.0620                 0.0782
 IR Inten    --      0.8068                 1.8357                 0.4044

                      7                      8                      9
                      A                      A                      A
 Frequencies --    204.9687               249.7682               281.0473
 Red. masses --      3.5368                 3.2648                 3.0148
 Frc consts  --      0.0875                 0.1200                 0.1403
 IR Inten    --      0.5885                 5.8597                 7.8412

                     10                     11                     12
                      A                      A                      A
 Frequencies --    314.3386               349.7256               393.7702
 Red. masses --      3.5929                 3.2137                 4.8067
 Frc consts  --      0.2092                 0.2316                 0.4391
 IR Inten    --      0.5623                 2.2642                 4.2437

                     13                     14                     15
                      A                      A                      A
 Frequencies --    423.8649               443.6161               464.9394
 Red. masses --      4.0578                 3.3856                 3.2680
 Frc consts  --      0.4295                 0.3926                 0.4162
 IR Inten    --      3.6636                 1.6421                 3.8225

                     16                     17                     18
                      A                      A                      A
 Frequencies --    488.0894               519.0895               534.7471
 Red. masses --      4.2561                 3.3492                 2.8224
 Frc consts  --      0.5974                 0.5317                 0.4755
 IR Inten    --      1.2478                16.3712                10.6674

                     19                     20                     21
                      A                      A                      A
 Frequencies --    574.6651               596.8534               621.1989
 Red. masses --      3.8768                 3.8935                 6.0582
 Frc consts  --      0.7543                 0.8172                 1.3774
 IR Inten    --      2.9004                 4.9837                26.0032

                     22                     23                     24
                      A                      A                      A
 Frequencies --    688.9566               690.4473               716.6297
 Red. masses --      4.3565                 2.8214                 1.9908
 Frc consts  --      1.2183                 0.7925                 0.6024
 IR Inten    --      7.0893                 8.0695               119.7871

                     25                     26                     27
                      A                      A                      A
 Frequencies --    737.1880               771.5946               807.3103
 Red. masses --      4.0971                 2.4473                 3.1779
 Frc consts  --      1.3118                 0.8585                 1.2203
 IR Inten    --      4.7192                45.2332                 4.1690

                     28                     29                     30
                      A                      A                      A
 Frequencies --    826.9445               886.4164               913.2699
 Red. masses --      1.8418                 3.3709                 1.4219
 Frc consts  --      0.7421                 1.5605                 0.6988
 IR Inten    --     38.9610                 4.1327                 6.6736

                     31                     32                     33
                      A                      A                      A
 Frequencies --    946.3190               959.8879               978.4204
 Red. masses --      2.0847                 2.9669                 1.4718
 Frc consts  --      1.0999                 1.6106                 0.8301
 IR Inten    --     25.5840                 3.1653                 0.8377

                     34                     35                     36
                      A                      A                      A
 Frequencies --   1013.3663              1020.7242              1028.3910
 Red. masses --      1.2844                 1.4292                 1.4215
 Frc consts  --      0.7771                 0.8773                 0.8858
 IR Inten    --      1.6065                20.7159                13.1478

                     37                     38                     39
                      A                      A                      A
 Frequencies --   1055.9494              1061.4645              1074.0496
 Red. masses --      2.4420                 1.6207                 3.2866
 Frc consts  --      1.6043                 1.0759                 2.2338
 IR Inten    --      7.1423                 5.6647                12.5972

                     40                     41                     42
                      A                      A                      A
 Frequencies --   1104.7993              1161.5661              1176.5690
 Red. masses --      2.8823                 2.1436                 1.2392
 Frc consts  --      2.0728                 1.7041                 1.0107
 IR Inten    --     27.2314                 2.2713                 7.0484

                     43                     44                     45
                      A                      A                      A
 Frequencies --   1207.8669              1231.4986              1265.1209
 Red. masses --      1.9414                 3.1823                 1.9113
 Frc consts  --      1.6688                 2.8435                 1.8024
 IR Inten    --      9.8463                 0.2913                 3.4940

                     46                     47                     48
                      A                      A                      A
 Frequencies --   1273.6147              1318.0455              1327.0465
 Red. masses --      1.4617                 1.4031                 1.8133
 Frc consts  --      1.3970                 1.4362                 1.8815
 IR Inten    --      0.7898                 0.7466                 9.4321

                     49                     50                     51
                      A                      A                      A
 Frequencies --   1344.3880              1362.7506              1372.1587
 Red. masses --      1.7056                 1.4789                 1.5655
 Frc consts  --      1.8163                 1.6182                 1.7367
 IR Inten    --      6.5506                 6.2680                22.7202

                     52                     53                     54
                      A                      A                      A
 Frequencies --   1409.8423              1416.4069              1431.8822
 Red. masses --      1.3031                 2.5385                 1.5195
 Frc consts  --      1.5261                 3.0006                 1.8356
 IR Inten    --      1.2527                 2.3152                17.3640

                     55                     56                     57
                      A                      A                      A
 Frequencies --   1474.4340              1484.5864              1490.3601
 Red. masses --      1.0466                 1.2274                 1.1070
 Frc consts  --      1.3405                 1.5939                 1.4486
 IR Inten    --      4.4567                20.3806                 6.8937

                     58                     59                     60
                      A                      A                      A
 Frequencies --   1507.0009              1539.9122              1626.0733
 Red. masses --      2.3655                 6.7363                 6.2078
 Frc consts  --      3.1652                 9.4115                 9.6710
 IR Inten    --     48.0570                 8.1914                62.9966

                     61                     62                     63
                      A                      A                      A
 Frequencies --   1656.5595              1681.8386              2079.3215
 Red. masses --      5.8578                 7.8243                11.6080
 Frc consts  --      9.4710                13.0396                29.5699
 IR Inten    --     12.4165                 1.8441               336.4690

                     64                     65                     66
                      A                      A                      A
 Frequencies --   3039.9699              3040.1746              3093.4816
 Red. masses --      1.0473                 1.0490                 1.0900
 Frc consts  --      5.7026                 5.7126                 6.1457
 IR Inten    --     30.5263                39.1485                 1.9717

                     67                     68                     69
                      A                      A                      A
 Frequencies --   3099.1626              3100.2125              3120.4826
 Red. masses --      1.0991                 1.0932                 1.0864
 Frc consts  --      6.2199                 6.1904                 6.2328
 IR Inten    --      9.7963                 6.3409                 9.7348

                     70                     71                     72
                      A                      A                      A
 Frequencies --   3127.3811              3132.8702              3144.3491
 Red. masses --      1.1020                 1.0901                 1.0885
 Frc consts  --      6.3501                 6.3035                 6.3408
 IR Inten    --     12.6794                16.9872                31.4204

                     73                     74                     75
                      A                      A                      A
 Frequencies --   3160.2327              3178.4048              3234.1876
 Red. masses --      1.0901                 1.0899                 1.0925
 Frc consts  --      6.4146                 6.4874                 6.7331
 IR Inten    --     13.6399                 8.2470                 1.2513

 - Thermochemistry -
 -------------------
 Temperature   298.150 Kelvin.  Pressure   1.00000 Atm.
 Atom     1 has atomic number  6 and mass  12.00000

 Molecular mass:   196.10005 amu.
 Principal axes and moments of inertia in atomic units:
                           1         2         3
     Eigenvalues --  1492.964744305.610115439.59269
           X            0.99999   0.00311   0.00260
           Y           -0.00310   0.99999  -0.00329
           Z           -0.00261   0.00328   0.99999
 This molecule is an asymmetric top.
 Rotational symmetry number  1.
 Warning -- assumption of classical behavior for rotation
           may cause significant error
 Rotational temperatures (Kelvin)      0.05801     0.02012     0.01592
 Rotational constants (GHZ):           1.20883     0.41916     0.33178
 Zero-point vibrational energy     566474.4 (Joules/Mol)
                                  135.39064 (Kcal/Mol)
 Warning -- explicit consideration of  20 degrees of freedom as
           vibrations may cause significant error
 Vibrational temperatures:     57.19   105.19   133.18   151.54   241.93
          (Kelvin)            252.74   294.90   359.36   404.36   452.26
                              503.18   566.55   609.85   638.26   668.94
                              702.25   746.85   769.38   826.81   858.74
                              893.77   991.25   993.40  1031.07  1060.65
                             1110.15  1161.54  1189.79  1275.36  1313.99
                             1361.54  1381.06  1407.73  1458.01  1468.59
                             1479.63  1519.28  1527.21  1545.32  1589.56
                             1671.23  1692.82  1737.85  1771.85  1820.23
                             1832.45  1896.37  1909.32  1934.27  1960.69
                             1974.23  2028.45  2037.89  2060.16  2121.38
                             2135.99  2144.30  2168.24  2215.59  2339.56
                             2383.42  2419.79  2991.68  4373.84  4374.13
                             4450.83  4459.00  4460.51  4489.68  4499.60
                             4507.50  4524.02  4546.87  4573.02  4653.27

 Zero-point correction=                           0.215759 (Hartree/Particle)
 Thermal correction to Energy=                    0.228737
 Thermal correction to Enthalpy=                  0.229681
 Thermal correction to Gibbs Free Energy=         0.176117
 Sum of electronic and zero-point Energies=           -611.791399
 Sum of electronic and thermal Energies=              -611.778422
 Sum of electronic and thermal Enthalpies=            -611.777477
 Sum of electronic and thermal Free Energies=         -611.831041

                     E (Thermal)             CV                S
                      KCal/Mol        Cal/Mol-Kelvin    Cal/Mol-Kelvin
 Total                  143.534             50.825            112.734
 Electronic               0.000              0.000              0.000
 Translational            0.889              2.981             41.725
 Rotational               0.889              2.981             31.925
 Vibrational            141.757             44.863             39.083
 Vibration     1          0.594              1.981              5.271
 Vibration     2          0.599              1.967              4.068
 Vibration     3          0.602              1.954              3.605
 Vibration     4          0.605              1.945              3.353
 Vibration     5          0.625              1.882              2.456
 Vibration     6          0.628              1.872              2.374
 Vibration     7          0.640              1.833              2.088
 Vibration     8          0.663              1.763              1.732
 Vibration     9          0.681              1.709              1.527
 Vibration    10          0.702              1.646              1.339
 Vibration    11          0.727              1.576              1.167
 Vibration    12          0.761              1.483              0.986
 Vibration    13          0.786              1.418              0.879
 Vibration    14          0.803              1.375              0.815
 Vibration    15          0.822              1.328              0.752
 Vibration    16          0.844              1.276              0.689
 Vibration    17          0.874              1.208              0.612
 Vibration    18          0.890              1.173              0.577
 Vibration    19          0.931              1.086              0.495
 Vibration    20          0.955              1.038              0.455

 Optimization completed.
    -- Stationary point found.
 Normal termination of Gaussian 16 at Wed May 17 04:54:05 2023.
