 Gaussian 16, Revision A.03,
 Gaussian 16:  ES64L-G16RevA.03 25-Dec-2016

 -----------------------------
 # opt freq b3lyp/6-31g(2df,p)
 -----------------------------

 -------------------
 Title Card Required
 -------------------
 Symbolic Z-matrix:
 Charge =  0 Multiplicity = 1

 SCF Done:  E(RB3LYP) =  -1657.18677965     A.U. after   30 cycles
 SCF Done:  E(RB3LYP) =  -1657.31602616     A.U. after   22 cycles
 SCF Done:  E(RB3LYP) =  -1657.07085550     A.U. after   19 cycles
 SCF Done:  E(RB3LYP) =  -1657.44062930     A.U. after   16 cycles
 SCF Done:  E(RB3LYP) =  -1657.51954497     A.U. after   15 cycles
 SCF Done:  E(RB3LYP) =  -1657.58686542     A.U. after   15 cycles
 SCF Done:  E(RB3LYP) =  -1657.52497141     A.U. after   15 cycles
 SCF Done:  E(RB3LYP) =  -1657.61039920     A.U. after   15 cycles
 SCF Done:  E(RB3LYP) =  -1657.60724554     A.U. after   15 cycles
 SCF Done:  E(RB3LYP) =  -1657.61572230     A.U. after   15 cycles
 SCF Done:  E(RB3LYP) =  -1657.73830842     A.U. after    8 cycles
 SCF Done:  E(RB3LYP) =  -1657.73830892     A.U. after    8 cycles
 SCF Done:  E(RB3LYP) =  -1657.73830939     A.U. after    8 cycles
 SCF Done:  E(RB3LYP) =  -1657.73831009     A.U. after    8 cycles
 SCF Done:  E(RB3LYP) =  -1657.73831069     A.U. after    9 cycles
 SCF Done:  E(RB3LYP) =  -1657.73831103     A.U. after    8 cycles
 SCF Done:  E(RB3LYP) =  -1657.73831149     A.U. after    8 cycles
 SCF Done:  E(RB3LYP) =  -1657.73831171     A.U. after    8 cycles
 SCF Done:  E(RB3LYP) =  -1657.73831184     A.U. after    7 cycles
 Optimization completed.
    -- Stationary point found.
 Normal termination of Gaussian 16 at Fri May 19 05:37:14 2023.

 ----------------------------------------------------------------------
 #N Geom=AllCheck Guess=TCheck SCRF=Check GenChk RB3LYP/6-31G(2df,p) Fr
 eq
 ----------------------------------------------------------------------

 Structure from the checkpoint file:  "Cc1cscqdSrc2ccccccsc12.chk"
 -------------------
 Title Card Required
 -------------------
 Charge =  0 Multiplicity = 1

                         Standard orientation:
 ---------------------------------------------------------------------
 Center     Atomic      Atomic             Coordinates (Angstroms)
 Number     Number       Type             X           Y           Z
 ---------------------------------------------------------------------
      1          6           0        0.577241    3.383402    0.259417
      2          6           0        1.038866    1.947941    0.125668
      3          6           0        2.377835    1.731293    0.040754
      4         16           0        3.161085    0.217195   -0.142617
      5          6           0        1.868180   -0.953249   -0.080559
      6         16           0        2.311996   -2.555362   -0.171377
      7          6           0        0.498118   -0.502640    0.048467
      8          6           0       -0.503312   -1.582138    0.028038
      9          6           0       -1.482615   -1.714028    0.946997
     10          6           0       -2.786025   -1.921148    0.349358
     11          6           0       -3.627736   -0.866097    0.504524
     12          6           0       -3.725168   -0.126202   -0.775301
     13          6           0       -2.753324    0.762188   -1.060289
     14         16           0       -1.625303    1.419085    0.193757
     15          6           0        0.100126    0.839137    0.069654
     16          1           0        1.441970    4.050832    0.289522
     17          1           0       -0.003655    3.542643    1.173086
     18          1           0       -0.063089    3.679512   -0.575748
     19          1           0        3.073363    2.563884    0.064154
     20          1           0       -0.569818   -2.134297   -0.907457
     21          1           0       -1.429229   -1.178869    1.889730
     22          1           0       -2.795851   -2.463227   -0.595898
     23          1           0       -3.539492   -0.260104    1.402438
     24          1           0       -4.443885   -0.382923   -1.552264
     25          1           0       -2.727890    1.297101   -2.004149
 ---------------------------------------------------------------------

 SCF Done:  E(RB3LYP) =  -1657.73831184     A.U. after    1 cycles

 The electronic state is 1-A.
 Alpha  occ. eigenvalues --  -88.92707 -88.89622 -88.83001 -10.26942 -10.25952
 Alpha  occ. eigenvalues --  -10.24015 -10.23211 -10.23075 -10.22669 -10.22586
 Alpha  occ. eigenvalues --  -10.21890 -10.20816 -10.19987 -10.19906 -10.19853
 Alpha  occ. eigenvalues --   -7.98878  -7.95751  -7.89537  -5.95287  -5.94849
 Alpha  occ. eigenvalues --   -5.94680  -5.92250  -5.91874  -5.91322  -5.85936
 Alpha  occ. eigenvalues --   -5.85633  -5.85140  -0.89719  -0.85992  -0.82962
 Alpha  occ. eigenvalues --   -0.81569  -0.80031  -0.74231  -0.72481  -0.71736
 Alpha  occ. eigenvalues --   -0.66954  -0.63616  -0.61230  -0.57774  -0.57150
 Alpha  occ. eigenvalues --   -0.54136  -0.51187  -0.49564  -0.47753  -0.47076
 Alpha  occ. eigenvalues --   -0.46037  -0.44176  -0.43090  -0.41715  -0.40923
 Alpha  occ. eigenvalues --   -0.40534  -0.39364  -0.38536  -0.38205  -0.35718
 Alpha  occ. eigenvalues --   -0.35187  -0.34111  -0.32738  -0.30773  -0.30598
 Alpha  occ. eigenvalues --   -0.27036  -0.24295  -0.22231  -0.21038  -0.19896
 Alpha virt. eigenvalues --   -0.09214  -0.04745  -0.04199  -0.02857   0.00734
 Alpha virt. eigenvalues --    0.02958   0.03772   0.05647   0.07061   0.09274
 Alpha virt. eigenvalues --    0.09634   0.10557   0.10813   0.11718   0.12783

 Mulliken charges:
               1
     1  C   -0.472066
     2  C    0.233330
     3  C   -0.207240
     4  S    0.050838
     5  C    0.122645
     6  S   -0.399352
     7  C    0.071443
     8  C   -0.091998
     9  C   -0.115271
    10  C   -0.051401
    11  C   -0.164925
    12  C   -0.089729
    13  C   -0.077297
    14  S   -0.181741
    15  C    0.076412
    16  H    0.117435
    17  H    0.152694
    18  H    0.154323
    19  H    0.137483
    20  H    0.127155
    21  H    0.118749
    22  H    0.111870
    23  H    0.126850
    24  H    0.123807
    25  H    0.125986
 Sum of Mulliken charges =  -0.00000

 Dipole moment (field-independent basis, Debye):
    X=             -2.3209    Y=              4.2290    Z=             -0.7835  Tot=              4.8872
 Quadrupole moment (field-independent basis, Debye-Ang):
   XX=           -108.7839   YY=           -110.9689   ZZ=           -105.6227
   XY=             14.0660   XZ=              4.7663   YZ=              0.8161

  Exact polarizability: 264.167  -7.199 226.708  -1.211   2.682 109.351
 Approx polarizability: 471.684 -30.980 467.530 -19.465   8.807 201.213

                      1                      2                      3
                      A                      A                      A
 Frequencies --     37.4654                52.5980                78.0142
 Red. masses --      6.2533                 6.2691                 5.8292
 Frc consts  --      0.0052                 0.0102                 0.0209
 IR Inten    --      2.7545                 0.0792                 1.0306

                      4                      5                      6
                      A                      A                      A
 Frequencies --    114.7999               178.1418               205.4084
 Red. masses --      5.6168                 5.5009                 4.3227
 Frc consts  --      0.0436                 0.1029                 0.1075
 IR Inten    --      3.9040                 1.1889                 7.2115

                      7                      8                      9
                      A                      A                      A
 Frequencies --    218.9495               235.4536               253.2451
 Red. masses --      1.5813                 5.1937                 3.6343
 Frc consts  --      0.0447                 0.1696                 0.1373
 IR Inten    --      2.4944                 0.0837                 1.2813

                     10                     11                     12
                      A                      A                      A
 Frequencies --    261.9256               307.1479               316.5266
 Red. masses --      2.2623                 4.1026                 5.7204
 Frc consts  --      0.0914                 0.2280                 0.3377
 IR Inten    --      0.3161                 1.3073                 2.2886

                     13                     14                     15
                      A                      A                      A
 Frequencies --    331.4357               349.6578               352.3723
 Red. masses --      5.1489                 3.0106                 3.5823
 Frc consts  --      0.3332                 0.2169                 0.2621
 IR Inten    --     13.4326                15.5769                 3.0233

                     16                     17                     18
                      A                      A                      A
 Frequencies --    395.0152               417.9670               449.3948
 Red. masses --      6.1446                 4.1566                 5.5782
 Frc consts  --      0.5649                 0.4278                 0.6637
 IR Inten    --      2.5701                 2.3727                 4.3937

                     19                     20                     21
                      A                      A                      A
 Frequencies --    495.3904               535.1940               537.3014
 Red. masses --      4.3214                 3.4988                 7.3840
 Frc consts  --      0.6248                 0.5905                 1.2560
 IR Inten    --      4.8108                16.3905                 0.6206

                     22                     23                     24
                      A                      A                      A
 Frequencies --    565.1300               615.0332               650.6367
 Red. masses --      4.9964                 5.2409                 4.9313
 Frc consts  --      0.9402                 1.1680                 1.2299
 IR Inten    --      1.2579                 3.4294                11.8140

                     25                     26                     27
                      A                      A                      A
 Frequencies --    703.6252               713.5248               743.4246
 Red. masses --      3.5180                 2.8304                 5.3920
 Frc consts  --      1.0262                 0.8490                 1.7558
 IR Inten    --      7.2093                 3.1585                 6.7625

                     28                     29                     30
                      A                      A                      A
 Frequencies --    751.3113               793.9557               830.5041
 Red. masses --      1.9527                 1.8076                 2.0112
 Frc consts  --      0.6494                 0.6713                 0.8173
 IR Inten    --     20.6566               130.6830               104.6043

                     31                     32                     33
                      A                      A                      A
 Frequencies --    832.4417               860.4336               937.4045
 Red. masses --      1.4251                 4.3480                 1.8462
 Frc consts  --      0.5819                 1.8966                 0.9558
 IR Inten    --     27.7438                13.4033                10.3960

                     34                     35                     36
                      A                      A                      A
 Frequencies --    948.2506               967.6938               999.0175
 Red. masses --      2.5114                 1.4803                 3.3104
 Frc consts  --      1.3305                 0.8167                 1.9466
 IR Inten    --     44.5016                 6.6053                13.4889

                     37                     38                     39
                      A                      A                      A
 Frequencies --   1042.1771              1056.7897              1061.7827
 Red. masses --      1.8079                 2.3916                 1.4755
 Frc consts  --      1.1570                 1.5737                 0.9801
 IR Inten    --     49.6839                28.3519                 7.5587

                     40                     41                     42
                      A                      A                      A
 Frequencies --   1069.3968              1101.3751              1141.4666
 Red. masses --      1.3661                 3.7143                 2.5679
 Frc consts  --      0.9205                 2.6546                 1.9713
 IR Inten    --     37.9569                87.9626                10.0894

                     43                     44                     45
                      A                      A                      A
 Frequencies --   1176.4980              1201.2354              1224.4613
 Red. masses --      1.1809                 2.3036                 1.2792
 Frc consts  --      0.9630                 1.9585                 1.1300
 IR Inten    --      1.3190                 1.5160                25.8343

                     46                     47                     48
                      A                      A                      A
 Frequencies --   1266.5065              1301.6713              1315.1029
 Red. masses --      3.3218                 1.2962                 1.5141
 Frc consts  --      3.1393                 1.2940                 1.5428
 IR Inten    --    124.0666                13.0461                14.7281

                     49                     50                     51
                      A                      A                      A
 Frequencies --   1337.8600              1339.5783              1345.4368
 Red. masses --      1.4511                 1.5260                 1.9565
 Frc consts  --      1.5302                 1.6134                 2.0867
 IR Inten    --      0.9645                 6.6229                29.4220

                     52                     53                     54
                      A                      A                      A
 Frequencies --   1420.9039              1432.3224              1472.2730
 Red. masses --      1.2130                 6.9287                 1.0696
 Frc consts  --      1.4429                 8.3750                 1.3660
 IR Inten    --      0.9479                67.2708                11.7317

                     55                     56                     57
                      A                      A                      A
 Frequencies --   1486.6745              1543.1434              1573.6173
 Red. masses --      1.1083                 4.7299                 6.2957
 Frc consts  --      1.4432                 6.6361                 9.1853
 IR Inten    --     13.4097                11.3099                19.8446

                     58                     59                     60
                      A                      A                      A
 Frequencies --   1582.7916              1616.7877              3043.7010
 Red. masses --      5.4822                 5.5718                 1.0358
 Frc consts  --      8.0920                 8.5813                 5.6536
 IR Inten    --     56.5788                 5.2985                18.8066

                     61                     62                     63
                      A                      A                      A
 Frequencies --   3105.8090              3121.6248              3126.2859
 Red. masses --      1.0996                 1.1022                 1.0882
 Frc consts  --      6.2492                 6.3281                 6.2663
 IR Inten    --      8.8076                18.2333                10.9101

                     64                     65                     66
                      A                      A                      A
 Frequencies --   3135.5800              3139.5542              3151.6336
 Red. masses --      1.0852                 1.0856                 1.0858
 Frc consts  --      6.2864                 6.3047                 6.3541
 IR Inten    --      9.9989                 3.3235                 4.9476

                     67                     68                     69
                      A                      A                      A
 Frequencies --   3178.6117              3180.1536              3183.0115
 Red. masses --      1.0947                 1.0895                 1.0894
 Frc consts  --      6.5165                 6.4918                 6.5029
 IR Inten    --     17.1804                 6.2169                 2.2347

 - Thermochemistry -
 -------------------
 Temperature   298.150 Kelvin.  Pressure   1.00000 Atm.
 Atom     1 has atomic number  6 and mass  12.00000

 Molecular mass:   249.99447 amu.
 Principal axes and moments of inertia in atomic units:
                           1         2         3
     Eigenvalues --  2710.594384856.000107174.03127
           X            0.99934   0.03591   0.00604
           Y           -0.03593   0.99935   0.00352
           Z           -0.00591  -0.00373   0.99998
 This molecule is an asymmetric top.
 Rotational symmetry number  1.
 Warning -- assumption of classical behavior for rotation
           may cause significant error
 Rotational temperatures (Kelvin)      0.03195     0.01784     0.01207
 Rotational constants (GHZ):           0.66581     0.37165     0.25157
 Zero-point vibrational energy     475585.0 (Joules/Mol)
                                  113.66755 (Kcal/Mol)
 Warning -- explicit consideration of  23 degrees of freedom as
           vibrations may cause significant error
 Vibrational temperatures:     53.90    75.68   112.25   165.17   256.31
          (Kelvin)            295.54   315.02   338.77   364.36   376.85
                              441.92   455.41   476.86   503.08   506.99
                              568.34   601.36   646.58   712.76   770.02
                              773.06   813.10   884.90   936.12  1012.36
                             1026.60  1069.62  1080.97  1142.33  1194.91
                             1197.70  1237.97  1348.72  1364.32  1392.30
                             1437.36  1499.46  1520.48  1527.67  1538.62
                             1584.63  1642.32  1692.72  1728.31  1761.73
                             1822.22  1872.81  1892.14  1924.88  1927.35
                             1935.78  2044.36  2060.79  2118.27  2138.99
                             2220.24  2264.08  2277.28  2326.20  4379.21
                             4468.57  4491.32  4498.03  4511.40  4517.12
                             4534.50  4573.31  4575.53  4579.64

 Zero-point correction=                           0.181141 (Hartree/Particle)
 Thermal correction to Energy=                    0.195340
 Thermal correction to Enthalpy=                  0.196284
 Thermal correction to Gibbs Free Energy=         0.139586
 Sum of electronic and zero-point Energies=          -1657.557171
 Sum of electronic and thermal Energies=             -1657.542972
 Sum of electronic and thermal Enthalpies=           -1657.542028
 Sum of electronic and thermal Free Energies=        -1657.598726

                     E (Thermal)             CV                S
                      KCal/Mol        Cal/Mol-Kelvin    Cal/Mol-Kelvin
 Total                  122.578             54.634            119.332
 Electronic               0.000              0.000              0.000
 Translational            0.889              2.981             42.449
 Rotational               0.889              2.981             32.912
 Vibrational            120.800             48.672             43.970
 Vibration     1          0.594              1.982              5.389
 Vibration     2          0.596              1.977              4.717
 Vibration     3          0.599              1.964              3.940
 Vibration     4          0.608              1.937              3.186
 Vibration     5          0.629              1.869              2.348
 Vibration     6          0.640              1.832              2.084
 Vibration     7          0.647              1.812              1.968
 Vibration     8          0.655              1.787              1.837
 Vibration     9          0.664              1.757              1.708
 Vibration    10          0.669              1.743              1.649
 Vibration    11          0.697              1.660              1.378
 Vibration    12          0.703              1.642              1.328
 Vibration    13          0.714              1.613              1.253
 Vibration    14          0.727              1.576              1.168
 Vibration    15          0.729              1.570              1.156
 Vibration    16          0.762              1.481              0.981
 Vibration    17          0.781              1.431              0.899
 Vibration    18          0.808              1.362              0.798
 Vibration    19          0.851              1.260              0.670
 Vibration    20          0.890              1.172              0.576
 Vibration    21          0.892              1.168              0.571
 Vibration    22          0.921              1.107              0.514
 Vibration    23          0.975              1.000              0.425

                           ! Non-Optimized Parameters !
 Normal termination of Gaussian 16 at Fri May 19 07:33:10 2023.
