 Gaussian 16, Revision A.03,
 Gaussian 16:  ES64L-G16RevA.03 25-Dec-2016

 -----------------------------
 # opt freq b3lyp/6-31g(2df,p)
 -----------------------------

 -------------------
 Title Card Required
 -------------------
 Symbolic Z-matrix:
 Charge =  0 Multiplicity = 1

 SCF Done:  E(RB3LYP) =  -2336.80659239     A.U. after   29 cycles
 SCF Done:  E(RB3LYP) =  -2336.90996229     A.U. after   21 cycles
 SCF Done:  E(RB3LYP) =  -2337.04825684     A.U. after   17 cycles
 SCF Done:  E(RB3LYP) =  -2337.14515509     A.U. after   16 cycles
 SCF Done:  E(RB3LYP) =  -2337.18507616     A.U. after   16 cycles
 SCF Done:  E(RB3LYP) =  -2337.20911111     A.U. after   16 cycles
 SCF Done:  E(RB3LYP) =  -2337.23038361     A.U. after   16 cycles
 SCF Done:  E(RB3LYP) =  -2337.24467431     A.U. after   16 cycles
 SCF Done:  E(RB3LYP) =  -2337.25081890     A.U. after   16 cycles
 SCF Done:  E(RB3LYP) =  -2337.25281731     A.U. after   15 cycles
 SCF Done:  E(RB3LYP) =  -2337.25484807     A.U. after   14 cycles
 SCF Done:  E(RB3LYP) =  -2337.25485864     A.U. after   12 cycles
 SCF Done:  E(RB3LYP) =  -2337.25486578     A.U. after   11 cycles
 SCF Done:  E(RB3LYP) =  -2337.25487247     A.U. after   11 cycles
 SCF Done:  E(RB3LYP) =  -2337.25487602     A.U. after   11 cycles
 SCF Done:  E(RB3LYP) =  -2337.25487889     A.U. after   11 cycles
 SCF Done:  E(RB3LYP) =  -2337.25488033     A.U. after   11 cycles
 SCF Done:  E(RB3LYP) =  -2337.25488055     A.U. after    9 cycles
 SCF Done:  E(RB3LYP) =  -2337.25488072     A.U. after    9 cycles
 Optimization completed.
    -- Stationary point found.
 Normal termination of Gaussian 16 at Tue May 16 04:51:29 2023.

 ----------------------------------------------------------------------
 #N Geom=AllCheck Guess=TCheck SCRF=Check GenChk RB3LYP/6-31G(2df,p) Fr
 eq
 ----------------------------------------------------------------------

 Structure from the checkpoint file:  "Cc1c2ccc3c1C2dCd[SH]SSSS3.chk"
 -------------------
 Title Card Required
 -------------------
 Charge =  0 Multiplicity = 1

                         Standard orientation:
 ---------------------------------------------------------------------
 Center     Atomic      Atomic             Coordinates (Angstroms)
 Number     Number       Type             X           Y           Z
 ---------------------------------------------------------------------
      1          6           0       -4.104194   -0.114078    1.412396
      2          6           0       -2.832501   -0.714933    0.998677
      3          6           0       -2.431788   -1.419343   -0.140497
      4          6           0       -2.761160   -0.859709   -1.510295
      5          6           0       -2.230222    0.386324   -1.547249
      6          6           0       -1.574395    0.890490   -0.338085
      7          6           0       -1.498684   -0.243827    0.627617
      8          6           0       -0.923579   -1.500724    0.172202
      9          6           0        0.057588   -2.237507   -0.251665
     10         16           0        1.678984   -2.401969   -0.006354
     11         16           0        3.161451   -0.621875    0.532841
     12         16           0        2.575951    0.964716   -0.598849
     13         16           0        1.219083    2.049036    0.623004
     14         16           0       -0.725862    2.357375   -0.242815
     15          1           0       -4.754069    0.047057    0.537552
     16          1           0       -3.947585    0.829649    1.938093
     17          1           0       -4.635695   -0.800291    2.083078
     18          1           0       -3.257146   -1.402806   -2.296397
     19          1           0       -2.252899    1.012663   -2.432465
     20          1           0        2.087293   -2.362946   -1.293717
 ---------------------------------------------------------------------

 SCF Done:  E(RB3LYP) =  -2337.25488072     A.U. after    1 cycles

 The electronic state is 1-A.
 Alpha  occ. eigenvalues --  -88.97681 -88.91514 -88.89888 -88.89435 -88.89017
 Alpha  occ. eigenvalues --  -10.27120 -10.26658 -10.25818 -10.25088 -10.21935
 Alpha  occ. eigenvalues --  -10.21747 -10.21693 -10.21257 -10.19717  -8.03427
 Alpha  occ. eigenvalues --   -7.97645  -7.95895  -7.95895  -7.95308  -5.99765
 Alpha  occ. eigenvalues --   -5.99600  -5.99196  -5.94097  -5.93759  -5.93210
 Alpha  occ. eigenvalues --   -5.92416  -5.92321  -5.92002  -5.91973  -5.91852
 Alpha  occ. eigenvalues --   -5.91496  -5.91417  -5.91376  -5.90785  -0.98758
 Alpha  occ. eigenvalues --   -0.85660  -0.82272  -0.80300  -0.78360  -0.77378
 Alpha  occ. eigenvalues --   -0.73004  -0.70804  -0.66143  -0.61447  -0.59299
 Alpha  occ. eigenvalues --   -0.58335  -0.55592  -0.51377  -0.48657  -0.46739
 Alpha  occ. eigenvalues --   -0.45975  -0.45418  -0.43856  -0.41679  -0.41102
 Alpha  occ. eigenvalues --   -0.40434  -0.38850  -0.38067  -0.37202  -0.35654
 Alpha  occ. eigenvalues --   -0.34747  -0.33602  -0.31435  -0.28334  -0.27922
 Alpha  occ. eigenvalues --   -0.26123  -0.24752  -0.23457  -0.22273  -0.16252
 Alpha virt. eigenvalues --   -0.10240  -0.08573  -0.05622  -0.02782  -0.02165
 Alpha virt. eigenvalues --   -0.01734  -0.00981   0.02178   0.03592   0.06629
 Alpha virt. eigenvalues --    0.07810   0.09928   0.12298   0.13694   0.14237

 Mulliken charges:
               1
     1  C   -0.485027
     2  C    0.206522
     3  C   -0.017048
     4  C   -0.219557
     5  C   -0.069225
     6  C    0.048487
     7  C   -0.103413
     8  C    0.332631
     9  C   -0.280002
    10  S    0.044474
    11  S   -0.146225
    12  S   -0.024888
    13  S   -0.100299
    14  S   -0.117907
    15  H    0.150473
    16  H    0.162161
    17  H    0.159893
    18  H    0.122985
    19  H    0.129437
    20  H    0.206529
 Sum of Mulliken charges =  -0.00000

 Dipole moment (field-independent basis, Debye):
    X=             -3.6134    Y=             -3.0943    Z=             -0.5978  Tot=              4.7947
 Quadrupole moment (field-independent basis, Debye-Ang):
   XX=           -105.3855   YY=           -118.9285   ZZ=           -111.6833
   XY=             -3.7833   XZ=             -5.3216   YZ=              0.7130

  Exact polarizability: 322.506  23.446 216.752  -3.953   0.108 142.553
 Approx polarizability: 783.194 163.876 543.815 -19.127 -11.069 307.566

                      1                      2                      3
                      A                      A                      A
 Frequencies --     47.0945                63.4282                73.6181
 Red. masses --     10.0880                15.6586                 8.6190
 Frc consts  --      0.0132                 0.0371                 0.0275
 IR Inten    --      5.0375                 0.7184                 2.5402

                      4                      5                      6
                      A                      A                      A
 Frequencies --     83.4046               130.0429               142.6248
 Red. masses --      6.3548                 6.3028                 3.5933
 Frc consts  --      0.0260                 0.0628                 0.0431
 IR Inten    --      3.8295                 5.7897                10.5669

                      7                      8                      9
                      A                      A                      A
 Frequencies --    148.6743               159.6769               195.0638
 Red. masses --      4.9849                 8.5559                 9.4778
 Frc consts  --      0.0649                 0.1285                 0.2125
 IR Inten    --      8.7108                 5.8201                 9.3694

                     10                     11                     12
                      A                      A                      A
 Frequencies --    201.8942               203.9637               237.0943
 Red. masses --      4.4494                 1.4158                 9.5081
 Frc consts  --      0.1069                 0.0347                 0.3149
 IR Inten    --     19.7957                 7.9760                 1.6141

                     13                     14                     15
                      A                      A                      A
 Frequencies --    256.5092               290.0758               356.7658
 Red. masses --      7.2812                 6.1453                 7.2315
 Frc consts  --      0.2823                 0.3047                 0.5423
 IR Inten    --      9.7271                15.6883                 3.0234

                     16                     17                     18
                      A                      A                      A
 Frequencies --    368.3353               407.4860               419.7395
 Red. masses --     12.4500                10.8177                 4.8914
 Frc consts  --      0.9952                 1.0583                 0.5077
 IR Inten    --      4.6886                 5.4197                16.5100

                     19                     20                     21
                      A                      A                      A
 Frequencies --    437.5509               469.0906               474.3265
 Red. masses --      5.6467                 4.6746                 7.3670
 Frc consts  --      0.6369                 0.6061                 0.9766
 IR Inten    --     16.7535                10.5682                79.3570

                     22                     23                     24
                      A                      A                      A
 Frequencies --    498.1446               551.5878               575.5355
 Red. masses --     16.1367                 2.2153                 3.4570
 Frc consts  --      2.3593                 0.3971                 0.6747
 IR Inten    --     22.5956                68.3287                19.1325

                     25                     26                     27
                      A                      A                      A
 Frequencies --    613.0869               637.0491               699.1649
 Red. masses --      3.4681                 1.5433                 6.7503
 Frc consts  --      0.7680                 0.3690                 1.9442
 IR Inten    --     32.6974                 3.6225                13.8117

                     28                     29                     30
                      A                      A                      A
 Frequencies --    718.8397               763.7957               830.5686
 Red. masses --      7.1098                 6.4653                 5.9856
 Frc consts  --      2.1646                 2.2222                 2.4328
 IR Inten    --     68.0291                10.4547                 3.0020

                     31                     32                     33
                      A                      A                      A
 Frequencies --    860.4850               915.6296               930.6956
 Red. masses --      4.5213                 1.3429                 3.9399
 Frc consts  --      1.9724                 0.6633                 2.0107
 IR Inten    --     31.5637                11.4887                14.6200

                     34                     35                     36
                      A                      A                      A
 Frequencies --    988.0681               999.3587              1044.5614
 Red. masses --      1.3186                 1.7520                 1.9921
 Frc consts  --      0.7585                 1.0310                 1.2807
 IR Inten    --     16.4378                43.1745                 8.2311

                     37                     38                     39
                      A                      A                      A
 Frequencies --   1087.8117              1108.7338              1123.8922
 Red. masses --      3.1033                 4.0266                 1.3811
 Frc consts  --      2.1636                 2.9164                 1.0278
 IR Inten    --     19.5946                73.6555                31.6059

                     40                     41                     42
                      A                      A                      A
 Frequencies --   1179.2146              1199.0848              1306.1235
 Red. masses --      4.0992                 6.1867                 1.5685
 Frc consts  --      3.3584                 5.2409                 1.5765
 IR Inten    --     17.3956                13.2852                 8.4475

                     43                     44                     45
                      A                      A                      A
 Frequencies --   1392.2010              1451.0287              1468.4332
 Red. masses --      1.2198                 1.0802                 1.0807
 Frc consts  --      1.3929                 1.3400                 1.3730
 IR Inten    --      5.1445                23.7181                 7.2057

                     46                     47                     48
                      A                      A                      A
 Frequencies --   1500.5873              1531.1478              1828.9506
 Red. masses --      5.7258                 7.0673                11.6456
 Frc consts  --      7.5964                 9.7620                22.9518
 IR Inten    --     30.4067                53.1139                40.2688

                     49                     50                     51
                      A                      A                      A
 Frequencies --   2605.6875              2981.1267              3059.0118
 Red. masses --      1.0402                 1.0513                 1.0844
 Frc consts  --      4.1609                 5.5047                 5.9788
 IR Inten    --      2.9672                49.8633                 1.8108

                     52                     53                     54
                      A                      A                      A
 Frequencies --   3133.8777              3194.1592              3278.6995
 Red. masses --      1.0967                 1.0905                 1.0955
 Frc consts  --      6.3462                 6.5550                 6.9388
 IR Inten    --      2.6402                 2.8638                 1.0060

 - Thermochemistry -
 -------------------
 Temperature   298.150 Kelvin.  Pressure   1.00000 Atm.
 Atom     1 has atomic number  6 and mass  12.00000

 Molecular mass:   273.90731 amu.
 Principal axes and moments of inertia in atomic units:
                           1         2         3
     Eigenvalues --  3008.739755387.868317285.27278
           X            0.99996  -0.00340  -0.00787
           Y            0.00346   0.99997   0.00711
           Z            0.00785  -0.00714   0.99994
 This molecule is an asymmetric top.
 Rotational symmetry number  1.
 Warning -- assumption of classical behavior for rotation
           may cause significant error
 Rotational temperatures (Kelvin)      0.02879     0.01608     0.01189
 Rotational constants (GHZ):           0.59983     0.33496     0.24772
 Zero-point vibrational energy     306380.4 (Joules/Mol)
                                   73.22667 (Kcal/Mol)
 Warning -- explicit consideration of  25 degrees of freedom as
           vibrations may cause significant error
 Vibrational temperatures:     67.76    91.26   105.92   120.00   187.10
          (Kelvin)            205.21   213.91   229.74   280.65   290.48
                              293.46   341.13   369.06   417.35   513.31
                              529.95   586.28   603.91   629.54   674.92
                              682.45   716.72   793.61   828.07   882.10
                              916.57  1005.94  1034.25  1098.93  1195.00
                             1238.05  1317.39  1339.06  1421.61  1437.85
                             1502.89  1565.12  1595.22  1617.03  1696.63
                             1725.22  1879.22  2003.07  2087.71  2112.75
                             2159.01  2202.98  2631.45  3749.00  4289.18
                             4401.24  4508.95  4595.68  4717.32

 Zero-point correction=                           0.116694 (Hartree/Particle)
 Thermal correction to Energy=                    0.132162
 Thermal correction to Enthalpy=                  0.133106
 Thermal correction to Gibbs Free Energy=         0.073111
 Sum of electronic and zero-point Energies=          -2337.138187
 Sum of electronic and thermal Energies=             -2337.122719
 Sum of electronic and thermal Enthalpies=           -2337.121775
 Sum of electronic and thermal Free Energies=        -2337.181770

                     E (Thermal)             CV                S
                      KCal/Mol        Cal/Mol-Kelvin    Cal/Mol-Kelvin
 Total                   82.933             55.014            126.271
 Electronic               0.000              0.000              0.000
 Translational            0.889              2.981             42.722
 Rotational               0.889              2.981             33.135
 Vibrational             81.155             49.053             50.415
 Vibration     1          0.595              1.979              4.936
 Vibration     2          0.597              1.972              4.348
 Vibration     3          0.599              1.966              4.054
 Vibration     4          0.600              1.961              3.809
 Vibration     5          0.612              1.923              2.945
 Vibration     6          0.616              1.911              2.768
 Vibration     7          0.618              1.904              2.689
 Vibration     8          0.622              1.892              2.554
 Vibration     9          0.636              1.847              2.179
 Vibration    10          0.639              1.837              2.116
 Vibration    11          0.640              1.834              2.097
 Vibration    12          0.656              1.784              1.825
 Vibration    13          0.666              1.752              1.685
 Vibration    14          0.686              1.692              1.474
 Vibration    15          0.732              1.561              1.136
 Vibration    16          0.741              1.537              1.087
 Vibration    17          0.772              1.454              0.936
 Vibration    18          0.782              1.427              0.893
 Vibration    19          0.798              1.388              0.834
 Vibration    20          0.826              1.319              0.740
 Vibration    21          0.831              1.307              0.726
 Vibration    22          0.854              1.254              0.663
 Vibration    23          0.907              1.136              0.541
 Vibration    24          0.932              1.084              0.494
 Vibration    25          0.972              1.004              0.428

 Optimization completed.
    -- Stationary point found.
 Normal termination of Gaussian 16 at Tue May 16 05:56:19 2023.
