 Gaussian 16, Revision A.03,
 Gaussian 16:  ES64L-G16RevA.03 25-Dec-2016

 -----------------------------
 # opt freq b3lyp/6-31g(2df,p)
 -----------------------------

 -------------------
 Title Card Required
 -------------------
 Symbolic Z-matrix:
 Charge =  0 Multiplicity = 1

 SCF Done:  E(RB3LYP) =  -1011.23731198     A.U. after   19 cycles
 SCF Done:  E(RB3LYP) =  -1011.29280222     A.U. after   15 cycles
 SCF Done:  E(RB3LYP) =  -1011.32855183     A.U. after   15 cycles
 SCF Done:  E(RB3LYP) =  -1011.35719396     A.U. after   15 cycles
 SCF Done:  E(RB3LYP) =  -1011.38068478     A.U. after   15 cycles
 SCF Done:  E(RB3LYP) =  -1011.39089874     A.U. after   14 cycles
 SCF Done:  E(RB3LYP) =  -1011.40152175     A.U. after   16 cycles
 SCF Done:  E(RB3LYP) =  -1011.40843669     A.U. after   15 cycles
 SCF Done:  E(RB3LYP) =  -1011.41291840     A.U. after   15 cycles
 SCF Done:  E(RB3LYP) =  -1011.41610333     A.U. after   15 cycles
 SCF Done:  E(RB3LYP) =  -1011.42275740     A.U. after   14 cycles
 SCF Done:  E(RB3LYP) =  -1011.42321691     A.U. after   12 cycles
 SCF Done:  E(RB3LYP) =  -1011.42346925     A.U. after   13 cycles
 SCF Done:  E(RB3LYP) =  -1011.42359686     A.U. after   11 cycles
 SCF Done:  E(RB3LYP) =  -1011.42366916     A.U. after   12 cycles
 SCF Done:  E(RB3LYP) =  -1011.42370467     A.U. after   11 cycles
 SCF Done:  E(RB3LYP) =  -1011.42371740     A.U. after   10 cycles
 SCF Done:  E(RB3LYP) =  -1011.42371927     A.U. after    9 cycles
 SCF Done:  E(RB3LYP) =  -1011.42372013     A.U. after    8 cycles
 Optimization completed.
    -- Stationary point found.

 The electronic state is 1-A.
 Alpha  occ. eigenvalues --  -88.91199 -14.37822 -14.32788 -10.24899 -10.23847
 Alpha  occ. eigenvalues --  -10.21629 -10.19452 -10.19369 -10.18995 -10.18893
 Alpha  occ. eigenvalues --  -10.17878 -10.17692 -10.17550 -10.17461 -10.17215
 Alpha  occ. eigenvalues --  -10.16998  -7.97367  -5.93980  -5.93466  -5.92808
 Alpha  occ. eigenvalues --   -0.95346  -0.93871  -0.84288  -0.81383  -0.77964
 Alpha  occ. eigenvalues --   -0.75795  -0.74182  -0.71897  -0.68026  -0.66158
 Alpha  occ. eigenvalues --   -0.61710  -0.60285  -0.58391  -0.55815  -0.53761
 Alpha  occ. eigenvalues --   -0.51103  -0.49860  -0.48453  -0.47733  -0.46895
 Alpha  occ. eigenvalues --   -0.44136  -0.43825  -0.43030  -0.41959  -0.40873
 Alpha  occ. eigenvalues --   -0.40078  -0.38260  -0.37562  -0.36752  -0.35222
 Alpha  occ. eigenvalues --   -0.34505  -0.34008  -0.32880  -0.31746  -0.31092
 Alpha  occ. eigenvalues --   -0.29284  -0.26696  -0.26153  -0.24685  -0.22781
 Alpha  occ. eigenvalues --   -0.16520
 Alpha virt. eigenvalues --   -0.05600  -0.04251  -0.00505   0.02722   0.03651
 Alpha virt. eigenvalues --    0.05511   0.05810   0.09259   0.10850   0.11536
 Alpha virt. eigenvalues --    0.12105   0.13701   0.14507   0.16043   0.16498

 Mulliken charges:
               1
     1  C   -0.426973
     2  C   -0.132213
     3  C   -0.163009
     4  C    0.157779
     5  C   -0.142899
     6  C   -0.115932
     7  C   -0.139939
     8  C   -0.131059
     9  C    0.167261
    10  C   -0.136511
    11  N   -0.164855
    12  C   -0.032402
    13  C   -0.215786
    14  C    0.331251
    15  N   -0.346705
    16  S   -0.166050
    17  H    0.120042
    18  H    0.117868
    19  H    0.139581
    20  H    0.140412
    21  H    0.083216
    22  H    0.089113
    23  H    0.089251
    24  H    0.089534
    25  H    0.089682
    26  H    0.105931
    27  H    0.104833
    28  H    0.085596
    29  H    0.259394
    30  H    0.143588
 Sum of Mulliken charges =  -0.00000

 Dipole moment (field-independent basis, Debye):
    X=             -0.9872    Y=             -0.4482    Z=             -1.8866  Tot=              2.1759
 Quadrupole moment (field-independent basis, Debye-Ang):
   XX=            -97.0051   YY=            -99.4385   ZZ=            -98.7809
   XY=              1.3120   XZ=              4.9736   YZ=              0.1121

 Normal termination of Gaussian 16 at Tue May 16 19:20:16 2023.

 ----------------------------------------------------------------------
 #N Geom=AllCheck Guess=TCheck SCRF=Check GenChk RB3LYP/6-31G(2df,p) Fr
 eq
 ----------------------------------------------------------------------

 Structure from the checkpoint file:  "CC1Cdc2ccccc2dCNdCCdC1NS.chk"
 -------------------
 Title Card Required
 -------------------
 Charge =  0 Multiplicity = 1

                         Standard orientation:
 ---------------------------------------------------------------------
 Center     Atomic      Atomic             Coordinates (Angstroms)
 Number     Number       Type             X           Y           Z
 ---------------------------------------------------------------------
      1          6           0       -1.660388    0.710807    2.101032
      2          6           0       -0.969645   -0.084556    0.978629
      3          6           0        0.024356    0.775266    0.221831
      4          6           0        1.346914    0.598857   -0.072146
      5          6           0        2.032205    1.754962   -0.655865
      6          6           0        3.375417    1.892951   -0.642882
      7          6           0        4.215489    0.863684   -0.080832
      8          6           0        3.662504   -0.299380    0.329136
      9          6           0        2.240604   -0.565454    0.207592
     10          6           0        1.844681   -1.877967    0.318818
     11          7           0        0.555814   -2.283689    0.170966
     12          6           0       -0.115153   -2.093573   -0.906342
     13          6           0       -1.512104   -1.733884   -0.888928
     14          6           0       -1.921606   -0.754882   -0.034186
     15          7           0       -3.262742   -0.336842   -0.105912
     16         16           0       -3.674576    1.290577   -0.473043
     17          1           0       -0.915393    0.953027    2.864251
     18          1           0       -2.450399    0.117017    2.570275
     19          1           0       -2.097427    1.647549    1.751588
     20          1           0       -0.446897   -0.895510    1.472643
     21          1           0       -0.405405    1.716291   -0.119652
     22          1           0        1.406017    2.555874   -1.037468
     23          1           0        3.833642    2.793609   -1.038950
     24          1           0        5.288034    1.015463   -0.028792
     25          1           0        4.288738   -1.108068    0.695222
     26          1           0        2.559334   -2.614539    0.682493
     27          1           0        0.398777   -2.015719   -1.876584
     28          1           0       -2.153719   -2.030784   -1.714757
     29          1           0       -3.825372   -0.976191   -0.654744
     30          1           0       -3.117870    1.415474   -1.707342
 ---------------------------------------------------------------------

 SCF Done:  E(RB3LYP) =  -1011.42372013     A.U. after    1 cycles
