 Gaussian 16, Revision A.03,
 Gaussian 16:  ES64L-G16RevA.03 25-Dec-2016

 -----------------------------
 # opt freq b3lyp/6-31g(2df,p)
 -----------------------------

 -------------------
 Title Card Required
 -------------------
 Symbolic Z-matrix:
 Charge =  0 Multiplicity = 1

 SCF Done:  E(RB3LYP) =  -578.619094607     A.U. after   20 cycles
 SCF Done:  E(RB3LYP) =  -578.655499312     A.U. after   15 cycles
 SCF Done:  E(RB3LYP) =  -578.673701332     A.U. after   17 cycles
 SCF Done:  E(RB3LYP) =  -578.681738154     A.U. after   16 cycles
 SCF Done:  E(RB3LYP) =  -578.688698635     A.U. after   15 cycles
 SCF Done:  E(RB3LYP) =  -578.693377465     A.U. after   13 cycles
 SCF Done:  E(RB3LYP) =  -578.695205562     A.U. after   13 cycles
 SCF Done:  E(RB3LYP) =  -578.696083507     A.U. after   14 cycles
 SCF Done:  E(RB3LYP) =  -578.696243280     A.U. after   12 cycles
 SCF Done:  E(RB3LYP) =  -578.696328816     A.U. after   11 cycles
 SCF Done:  E(RB3LYP) =  -578.696419937     A.U. after   10 cycles
 SCF Done:  E(RB3LYP) =  -578.696446785     A.U. after   10 cycles
 SCF Done:  E(RB3LYP) =  -578.696455983     A.U. after    9 cycles
 SCF Done:  E(RB3LYP) =  -578.696460122     A.U. after    9 cycles
 SCF Done:  E(RB3LYP) =  -578.696460918     A.U. after    8 cycles
 Optimization completed.
    -- Stationary point found.
 Normal termination of Gaussian 16 at Sat May 20 09:03:29 2023.

 ----------------------------------------------------------------------
 #N Geom=AllCheck Guess=TCheck SCRF=Check GenChk RB3LYP/6-31G(2df,p) Fr
 eq
 ----------------------------------------------------------------------

 Structure from the checkpoint file:  "Cc1cc2cc3cccc-3ccccc1-2.chk"
 -------------------
 Title Card Required
 -------------------
 Charge =  0 Multiplicity = 1

                         Standard orientation:
 ---------------------------------------------------------------------
 Center     Atomic      Atomic             Coordinates (Angstroms)
 Number     Number       Type             X           Y           Z
 ---------------------------------------------------------------------
      1          6           0       -4.568954   -0.548809   -0.081558
      2          6           0       -3.091604   -0.684113   -0.021722
      3          6           0       -2.208533   -1.723523    0.076207
      4          6           0       -1.012546   -0.871830    0.056369
      5          6           0        0.280799   -1.286304    0.105054
      6          6           0        1.650392   -0.789550    0.074757
      7          6           0        2.686019   -1.689427   -0.064521
      8          6           0        3.952448   -1.004801   -0.194675
      9          6           0        3.727739    0.335307   -0.150168
     10          6           0        2.303630    0.555502    0.052551
     11          6           0        1.704763    1.766606    0.180358
     12          6           0        0.303057    1.770833    0.486744
     13          6           0       -0.711474    2.348322   -0.185309
     14          6           0       -1.978994    1.648545   -0.174653
     15          6           0       -2.007734    0.305131   -0.048765
     16          1           0       -5.060592   -1.524698   -0.049823
     17          1           0       -4.882681   -0.038638   -1.000965
     18          1           0       -4.946570    0.052096    0.755047
     19          1           0       -2.329667   -2.797961    0.155816
     20          1           0        0.310367   -2.377740    0.144324
     21          1           0        2.562281   -2.764712   -0.109354
     22          1           0        4.910063   -1.495303   -0.309608
     23          1           0        4.459584    1.130079   -0.198981
     24          1           0        2.266873    2.679271   -0.006622
     25          1           0        0.012794    0.974131    1.162428
     26          1           0       -0.564763    3.192972   -0.855547
     27          1           0       -2.911737    2.179167   -0.350730
 ---------------------------------------------------------------------

 SCF Done:  E(RB3LYP) =  -578.696460918     A.U. after    1 cycles

 The electronic state is 1-A.
 Alpha  occ. eigenvalues --  -10.20446 -10.20273 -10.20095 -10.19701 -10.19550
 Alpha  occ. eigenvalues --  -10.19393 -10.19340 -10.18615 -10.18611 -10.18536
 Alpha  occ. eigenvalues --  -10.18116 -10.18025 -10.17134 -10.17088 -10.16805
 Alpha  occ. eigenvalues --   -0.88237  -0.85794  -0.81623  -0.76435  -0.76275
 Alpha  occ. eigenvalues --   -0.73074  -0.69608  -0.67475  -0.63286  -0.59796
 Alpha  occ. eigenvalues --   -0.57022  -0.55849  -0.53111  -0.50470  -0.50052
 Alpha  occ. eigenvalues --   -0.48175  -0.46311  -0.44743  -0.42971  -0.42665
 Alpha  occ. eigenvalues --   -0.41801  -0.40483  -0.39062  -0.37269  -0.36739
 Alpha  occ. eigenvalues --   -0.36456  -0.35445  -0.35174  -0.34573  -0.33436
 Alpha  occ. eigenvalues --   -0.31173  -0.30307  -0.25602  -0.24770  -0.20139
 Alpha  occ. eigenvalues --   -0.17861
 Alpha virt. eigenvalues --   -0.07379  -0.03581   0.00531   0.04036   0.09311
 Alpha virt. eigenvalues --    0.09946   0.11381   0.11778   0.12660   0.12936
 Alpha virt. eigenvalues --    0.13803   0.14396   0.14654   0.16231   0.16559

 Mulliken charges:
               1
     1  C   -0.513691
     2  C    0.292410
     3  C   -0.337459
     4  C    0.225092
     5  C   -0.258636
     6  C    0.171716
     7  C   -0.174212
     8  C   -0.138585
     9  C   -0.183214
    10  C    0.192996
    11  C   -0.228825
    12  C   -0.098710
    13  C   -0.121127
    14  C   -0.245612
    15  C    0.109071
    16  H    0.132709
    17  H    0.138441
    18  H    0.139473
    19  H    0.115674
    20  H    0.082222
    21  H    0.090647
    22  H    0.094540
    23  H    0.094777
    24  H    0.107313
    25  H    0.123877
    26  H    0.100191
    27  H    0.088923
 Sum of Mulliken charges =  -0.00000

 Dipole moment (field-independent basis, Debye):
    X=             -1.9435    Y=              0.2711    Z=             -0.3005  Tot=              1.9852
 Quadrupole moment (field-independent basis, Debye-Ang):
   XX=            -76.1537   YY=            -77.7061   ZZ=            -90.3909
   XY=              2.2921   XZ=             -0.0074   YZ=             -1.7461

  Exact polarizability: 307.841 -12.609 184.933  -0.516  -3.969  70.460
 Approx polarizability: 576.808 -48.459 370.364   2.090  -5.585 123.632

                      1                      2                      3
                      A                      A                      A
 Frequencies --     73.4861                97.4630               122.8460
 Red. masses --      3.5354                 3.4094                 1.1085
 Frc consts  --      0.0112                 0.0191                 0.0099
 IR Inten    --      0.6084                 0.8227                 0.0489

                      4                      5                      6
                      A                      A                      A
 Frequencies --    163.8993               180.3254               215.0847
 Red. masses --      3.6634                 3.3908                 3.6679
 Frc consts  --      0.0580                 0.0650                 0.1000
 IR Inten    --      0.4225                 0.6065                 5.2851

                      7                      8                      9
                      A                      A                      A
 Frequencies --    219.2723               273.0880               302.6690
 Red. masses --      3.0750                 4.4420                 6.1596
 Frc consts  --      0.0871                 0.1952                 0.3325
 IR Inten    --      2.2554                 2.3544                 1.3639

                     10                     11                     12
                      A                      A                      A
 Frequencies --    338.1216               356.5533               377.2932
 Red. masses --      3.9677                 2.7069                 3.0055
 Frc consts  --      0.2673                 0.2028                 0.2521
 IR Inten    --      0.3420                 1.5868                 3.7773

                     13                     14                     15
                      A                      A                      A
 Frequencies --    399.1963               440.8216               473.9916
 Red. masses --      2.9627                 4.0678                 4.2479
 Frc consts  --      0.2782                 0.4657                 0.5623
 IR Inten    --      5.1569                 1.9781                 0.9617

                     16                     17                     18
                      A                      A                      A
 Frequencies --    516.2031               576.5271               631.3482
 Red. masses --      3.2552                 2.9994                 5.1820
 Frc consts  --      0.5111                 0.5874                 1.2170
 IR Inten    --      0.2779                 1.7302                 2.0897

                     19                     20                     21
                      A                      A                      A
 Frequencies --    660.3169               662.9827               701.3536
 Red. masses --      4.4285                 4.0407                 1.9900
 Frc consts  --      1.1377                 1.0464                 0.5767
 IR Inten    --      0.2558                 1.9157                14.7343

                     22                     23                     24
                      A                      A                      A
 Frequencies --    744.6160               747.8669               771.6950
 Red. masses --      3.7446                 4.6786                 1.8577
 Frc consts  --      1.2233                 1.5418                 0.6518
 IR Inten    --      8.6439                 7.2067                19.2840

                     25                     26                     27
                      A                      A                      A
 Frequencies --    786.2789               818.2138               833.9426
 Red. masses --      3.6547                 4.5429                 1.2970
 Frc consts  --      1.3312                 1.7919                 0.5315
 IR Inten    --      0.6733                 6.0703                11.0170

                     28                     29                     30
                      A                      A                      A
 Frequencies --    851.3790               860.4858               872.5582
 Red. masses --      1.6637                 1.4697                 1.6746
 Frc consts  --      0.7105                 0.6412                 0.7512
 IR Inten    --     22.2792                 8.8065                37.7655

                     31                     32                     33
                      A                      A                      A
 Frequencies --    911.3820               913.8183               928.2272
 Red. masses --      1.4233                 1.5617                 1.4704
 Frc consts  --      0.6965                 0.7684                 0.7464
 IR Inten    --      8.3113                 5.0096                14.3578

                     34                     35                     36
                      A                      A                      A
 Frequencies --    950.8794               982.3286              1030.0088
 Red. masses --      3.3723                 1.7915                 1.2598
 Frc consts  --      1.7965                 1.0186                 0.7875
 IR Inten    --      0.5122                 1.4612                23.7794

                     37                     38                     39
                      A                      A                      A
 Frequencies --   1038.6851              1050.6150              1062.8506
 Red. masses --      1.5483                 1.5463                 2.4077
 Frc consts  --      0.9842                 1.0056                 1.6025
 IR Inten    --      7.4653                 0.4869                20.4772

                     40                     41                     42
                      A                      A                      A
 Frequencies --   1074.7928              1103.5295              1141.0778
 Red. masses --      1.9734                 1.2332                 2.5925
 Frc consts  --      1.3431                 0.8848                 1.9888
 IR Inten    --      5.3969                 6.2904                11.1746

                     43                     44                     45
                      A                      A                      A
 Frequencies --   1177.1299              1193.7359              1245.7146
 Red. masses --      2.1202                 2.4649                 1.9557
 Frc consts  --      1.7309                 2.0695                 1.7881
 IR Inten    --      0.8068                10.6344                19.1015

                     46                     47                     48
                      A                      A                      A
 Frequencies --   1255.2250              1295.0148              1307.6940
 Red. masses --      1.6302                 1.7651                 2.8882
 Frc consts  --      1.5134                 1.7441                 2.9100
 IR Inten    --      3.8967                 3.6934                 6.5334

                     49                     50                     51
                      A                      A                      A
 Frequencies --   1337.6665              1356.5504              1376.9807
 Red. masses --      2.0806                 2.6987                 1.3918
 Frc consts  --      2.1935                 2.9260                 1.5549
 IR Inten    --      1.1862                10.9690                26.7159

                     52                     53                     54
                      A                      A                      A
 Frequencies --   1392.4969              1406.9249              1426.0037
 Red. masses --      1.5993                 1.2783                 1.6325
 Frc consts  --      1.8272                 1.4909                 1.9558
 IR Inten    --      0.2028                 8.6596                12.6631

                     55                     56                     57
                      A                      A                      A
 Frequencies --   1471.2879              1474.2302              1482.9771
 Red. masses --      3.3742                 1.0454                 1.1479
 Frc consts  --      4.3034                 1.3386                 1.4874
 IR Inten    --     23.2577                 6.1822                 0.7301

                     58                     59                     60
                      A                      A                      A
 Frequencies --   1578.5184              1585.1557              1633.6891
 Red. masses --      5.2573                 5.3293                 7.2752
 Frc consts  --      7.7181                 7.8898                11.4402
 IR Inten    --     21.9114                23.9980                59.3018

                     61                     62                     63
                      A                      A                      A
 Frequencies --   1639.4243              1677.4926              1718.7756
 Red. masses --      7.7727                 6.2905                 8.3070
 Frc consts  --     12.3085                10.4294                14.4588
 IR Inten    --     34.0984                 7.9140                24.4135

                     64                     65                     66
                      A                      A                      A
 Frequencies --   3019.2813              3065.8661              3086.3402
 Red. masses --      1.0379                 1.0984                 1.0830
 Frc consts  --      5.5746                 6.0829                 6.0781
 IR Inten    --     44.5685                12.9469                15.9085

                     67                     68                     69
                      A                      A                      A
 Frequencies --   3113.5639              3142.8153              3150.0980
 Red. masses --      1.0989                 1.0865                 1.0894
 Frc consts  --      6.2767                 6.3232                 6.3692
 IR Inten    --     13.8443                15.6424                17.1210

                     70                     71                     72
                      A                      A                      A
 Frequencies --   3155.5551              3180.2411              3198.8459
 Red. masses --      1.0916                 1.0841                 1.0989
 Frc consts  --      6.4041                 6.4601                 6.6253
 IR Inten    --     28.4501                 2.9014                10.0546

                     73                     74                     75
                      A                      A                      A
 Frequencies --   3200.3044              3214.3239              3234.5995
 Red. masses --      1.0894                 1.0894                 1.1043
 Frc consts  --      6.5736                 6.6318                 6.8074
 IR Inten    --     10.5827                10.4779                20.6096

 - Thermochemistry -
 -------------------
 Temperature   298.150 Kelvin.  Pressure   1.00000 Atm.
 Atom     1 has atomic number  6 and mass  12.00000

 Molecular mass:   192.09390 amu.
 Principal axes and moments of inertia in atomic units:
                           1         2         3
     Eigenvalues --  1312.021924519.753865765.88023
           X            1.00000   0.00221  -0.00007
           Y           -0.00221   0.99997  -0.00700
           Z            0.00006   0.00700   0.99998
 This molecule is an asymmetric top.
 Rotational symmetry number  1.
 Warning -- assumption of classical behavior for rotation
           may cause significant error
 Rotational temperatures (Kelvin)      0.06602     0.01916     0.01502
 Rotational constants (GHZ):           1.37554     0.39930     0.31300
 Zero-point vibrational energy     568540.8 (Joules/Mol)
                                  135.88451 (Kcal/Mol)
 Warning -- explicit consideration of  17 degrees of freedom as
           vibrations may cause significant error
 Vibrational temperatures:    105.73   140.23   176.75   235.81   259.45
          (Kelvin)            309.46   315.48   392.91   435.47   486.48
                              513.00   542.84   574.35   634.24   681.97
                              742.70   829.49   908.37   950.05   953.88
                             1009.09  1071.34  1076.01  1110.30  1131.28
                             1177.23  1199.86  1224.94  1238.05  1255.42
                             1311.28  1314.78  1335.51  1368.10  1413.35
                             1481.95  1494.44  1511.60  1529.21  1546.39
                             1587.73  1641.76  1693.63  1717.52  1792.31
                             1805.99  1863.24  1881.48  1924.60  1951.77
                             1981.17  2003.49  2024.25  2051.70  2116.86
                             2121.09  2133.67  2271.14  2280.69  2350.51
                             2358.77  2413.54  2472.93  4344.07  4411.10
                             4440.56  4479.72  4521.81  4532.29  4540.14
                             4575.66  4602.43  4604.52  4624.70  4653.87

 Zero-point correction=                           0.216546 (Hartree/Particle)
 Thermal correction to Energy=                    0.228823
 Thermal correction to Enthalpy=                  0.229768
 Thermal correction to Gibbs Free Energy=         0.178579
 Sum of electronic and zero-point Energies=           -578.479915
 Sum of electronic and thermal Energies=              -578.467637
 Sum of electronic and thermal Enthalpies=            -578.466693
 Sum of electronic and thermal Free Energies=         -578.517882

                     E (Thermal)             CV                S
                      KCal/Mol        Cal/Mol-Kelvin    Cal/Mol-Kelvin
 Total                  143.589             49.742            107.735
 Electronic               0.000              0.000              0.000
 Translational            0.889              2.981             41.664
 Rotational               0.889              2.981             31.903
 Vibrational            141.811             43.780             34.168
 Vibration     1          0.599              1.967              4.058
 Vibration     2          0.603              1.951              3.504
 Vibration     3          0.610              1.930              3.055
 Vibration     4          0.623              1.887              2.504
 Vibration     5          0.629              1.866              2.325
 Vibration     6          0.645              1.818              2.000
 Vibration     7          0.647              1.812              1.965
 Vibration     8          0.676              1.723              1.577
 Vibration     9          0.694              1.669              1.402
 Vibration    10          0.718              1.599              1.221
 Vibration    11          0.732              1.562              1.137
 Vibration    12          0.748              1.519              1.050
 Vibration    13          0.765              1.472              0.966
 Vibration    14          0.801              1.381              0.824
 Vibration    15          0.831              1.308              0.726
 Vibration    16          0.871              1.214              0.619
 Vibration    17          0.933              1.082              0.492

                           ! Non-Optimized Parameters !
 Normal termination of Gaussian 16 at Sat May 20 10:55:51 2023.
