 Gaussian 16, Revision A.03,
 Gaussian 16:  ES64L-G16RevA.03 25-Dec-2016

 -----------------------------
 # opt freq b3lyp/6-31g(2df,p)
 -----------------------------

 -------------------
 Title Card Required
 -------------------
 Symbolic Z-matrix:
 Charge =  0 Multiplicity = 2

 SCF Done:  E(UB3LYP) =  -774.257526809     A.U. after   27 cycles
 SCF Done:  E(UB3LYP) =  -774.271030316     A.U. after   19 cycles
 SCF Done:  E(UB3LYP) =  -774.273287114     A.U. after   19 cycles
 SCF Done:  E(UB3LYP) =  -774.273602069     A.U. after   17 cycles
 SCF Done:  E(UB3LYP) =  -774.273668857     A.U. after   17 cycles
 SCF Done:  E(UB3LYP) =  -774.273668923     A.U. after   17 cycles
 SCF Done:  E(UB3LYP) =  -774.273695956     A.U. after   14 cycles
 SCF Done:  E(UB3LYP) =  -774.273699846     A.U. after   12 cycles
 SCF Done:  E(UB3LYP) =  -774.273707077     A.U. after   13 cycles
 SCF Done:  E(UB3LYP) =  -774.273763175     A.U. after   19 cycles
 SCF Done:  E(UB3LYP) =  -774.274953075     A.U. after   11 cycles
 SCF Done:  E(UB3LYP) =  -774.274954077     A.U. after   12 cycles
 SCF Done:  E(UB3LYP) =  -774.274955532     A.U. after   13 cycles
 SCF Done:  E(UB3LYP) =  -774.274956028     A.U. after   11 cycles
 SCF Done:  E(UB3LYP) =  -774.274956057     A.U. after    9 cycles
 SCF Done:  E(UB3LYP) =  -774.274956088     A.U. after    9 cycles
 SCF Done:  E(UB3LYP) =  -774.274956121     A.U. after   10 cycles
 SCF Done:  E(UB3LYP) =  -774.274956146     A.U. after   10 cycles
 SCF Done:  E(UB3LYP) =  -774.274956153     A.U. after    9 cycles
 Optimization completed.
    -- Stationary point found.
 Normal termination of Gaussian 16 at Thu May 18 10:32:01 2023.

 ----------------------------------------------------------------------
 #N Geom=AllCheck Guess=TCheck SCRF=Check GenChk UB3LYP/6-31G(2df,p) Fr
 eq
 ----------------------------------------------------------------------

 Structure from the checkpoint file:  "Cc1cccqNNdNNCCqdOr[N]Orcc1.chk"
 -------------------
 Title Card Required
 -------------------
 Charge =  0 Multiplicity = 2

                         Standard orientation:
 ---------------------------------------------------------------------
 Center     Atomic      Atomic             Coordinates (Angstroms)
 Number     Number       Type             X           Y           Z
 ---------------------------------------------------------------------
      1          6           0       -6.365513    1.096923   -0.192800
      2          6           0       -4.971579    0.523995   -0.119163
      3          6           0       -4.733684   -0.843572   -0.264921
      4          6           0       -3.449675   -1.371322   -0.194927
      5          6           0       -2.352972   -0.531012    0.026333
      6          7           0       -1.082961   -1.089287    0.095071
      7          7           0        0.021290   -0.339053    0.282047
      8          7           0        1.069816   -1.028359    0.275299
      9          7           0        2.180586   -0.280551    0.545619
     10          6           0        3.412680   -0.817026    0.026764
     11          6           0        4.453135    0.285051   -0.025417
     12          8           0        4.195256    1.460811    0.136433
     13          7           0        5.722852   -0.246530   -0.303408
     14          8           0        6.606300    0.769613   -0.396639
     15          6           0       -2.571409    0.845873    0.174427
     16          6           0       -3.862338    1.348977    0.100887
     17          1           0       -7.104798    0.317154   -0.395814
     18          1           0       -6.451447    1.850022   -0.984759
     19          1           0       -6.650954    1.587492    0.745324
     20          1           0       -5.568907   -1.516088   -0.437607
     21          1           0       -3.294876   -2.440116   -0.312025
     22          1           0       -0.949258   -2.086298   -0.028343
     23          1           0        2.074419    0.723559    0.413026
     24          1           0        3.308057   -1.225575   -0.991771
     25          1           0        3.788288   -1.639060    0.648873
     26          1           0        7.443818    0.323355   -0.588417
     27          1           0       -1.728681    1.502281    0.345381
     28          1           0       -4.011068    2.419018    0.218289
 ---------------------------------------------------------------------

 SCF Done:  E(UB3LYP) =  -774.274956153     A.U. after    1 cycles

 The electronic state is 2-A.
 Alpha  occ. eigenvalues --  -19.24197 -19.15059 -14.41671 -14.39667 -14.39031
 Alpha  occ. eigenvalues --  -14.38264 -14.36503 -10.29656 -10.23376 -10.22439
 Alpha  occ. eigenvalues --  -10.18033 -10.17985 -10.17868 -10.17719 -10.17583
 Alpha  occ. eigenvalues --  -10.17450  -1.15206  -1.08771  -1.06001  -0.97473
 Alpha  occ. eigenvalues --   -0.88063  -0.85463  -0.83420  -0.76308  -0.73957
 Alpha  occ. eigenvalues --   -0.72307  -0.67375  -0.64546  -0.60626  -0.59277
 Alpha  occ. eigenvalues --   -0.57748  -0.56088  -0.53148  -0.52830  -0.50054
 Alpha  occ. eigenvalues --   -0.48997  -0.46886  -0.46668  -0.45694  -0.45009
 Alpha  occ. eigenvalues --   -0.43805  -0.43484  -0.42184  -0.41208  -0.41057
 Alpha  occ. eigenvalues --   -0.39053  -0.38765  -0.37563  -0.36545  -0.34780
 Alpha  occ. eigenvalues --   -0.33568  -0.33119  -0.31544  -0.27974  -0.26574
 Alpha  occ. eigenvalues --   -0.26154  -0.24575  -0.24371  -0.18281
 Alpha virt. eigenvalues --   -0.02124   0.00432   0.00589   0.03404   0.04805
 Alpha virt. eigenvalues --    0.08951   0.10246   0.11186   0.12279   0.13065
 Alpha virt. eigenvalues --    0.14544   0.14706   0.15528   0.16754   0.17094

  Beta  occ. eigenvalues --  -19.23511 -19.14580 -14.40421 -14.39656 -14.39038
  Beta  occ. eigenvalues --  -14.38244 -14.36451 -10.29773 -10.23372 -10.22442
  Beta  occ. eigenvalues --  -10.18028 -10.17981 -10.17870 -10.17721 -10.17583
  Beta  occ. eigenvalues --  -10.17446  -1.13526  -1.08738  -1.05124  -0.97408
  Beta  occ. eigenvalues --   -0.87945  -0.83888  -0.82686  -0.76216  -0.73951
  Beta  occ. eigenvalues --   -0.72105  -0.67301  -0.64495  -0.60600  -0.59008
  Beta  occ. eigenvalues --   -0.57634  -0.55952  -0.53063  -0.51683  -0.48819
  Beta  occ. eigenvalues --   -0.48545  -0.46695  -0.45735  -0.45002  -0.44429
  Beta  occ. eigenvalues --   -0.43363  -0.42230  -0.41761  -0.41205  -0.40992
  Beta  occ. eigenvalues --   -0.38988  -0.37563  -0.37084  -0.35576  -0.34777
  Beta  occ. eigenvalues --   -0.33128  -0.32334  -0.31344  -0.27400  -0.26039
  Beta  occ. eigenvalues --   -0.24591  -0.24391  -0.18201
  Beta virt. eigenvalues --   -0.13497  -0.02017   0.00469   0.03109   0.03667
  Beta virt. eigenvalues --    0.05138   0.08967   0.10255   0.11230   0.12379
  Beta virt. eigenvalues --    0.13205   0.14631   0.15467   0.15558   0.16792

 Mulliken charges and spin densities:
               1          2
     1  C   -0.494328  -0.000196
     2  C    0.289149   0.003571
     3  C   -0.174997  -0.001593
     4  C   -0.204643   0.003140
     5  C    0.411201  -0.001847
     6  N   -0.345059   0.008800
     7  N   -0.074714   0.004847
     8  N   -0.099279  -0.003758
     9  N   -0.234184   0.022269
    10  C   -0.213217   0.001331
    11  C    0.436190  -0.061897
    12  O   -0.304194   0.190837
    13  N   -0.189378   0.606018
    14  O   -0.277040   0.223634
    15  C   -0.209361   0.002916
    16  C   -0.169043  -0.001401
    17  H    0.118989   0.000005
    18  H    0.127211   0.000164
    19  H    0.127931   0.000177
    20  H    0.087637   0.000058
    21  H    0.081051  -0.000130
    22  H    0.238879  -0.000309
    23  H    0.252557  -0.000980
    24  H    0.139505   0.007611
    25  H    0.147313   0.003305
    26  H    0.332382  -0.006496
    27  H    0.110829  -0.000128
    28  H    0.088613   0.000052
 Sum of Mulliken charges =  -0.00000   1.00000

 Dipole moment (field-independent basis, Debye):
    X=              1.8163    Y=             -2.0864    Z=             -1.2296  Tot=              3.0272
 Quadrupole moment (field-independent basis, Debye-Ang):
   XX=            -60.2336   YY=            -90.0651   ZZ=            -93.7205
   XY=             -5.9253   XZ=             -4.2314   YZ=              0.6630

  Exact polarizability: 435.450   5.825 137.205  -3.525   5.036  72.369
 Approx polarizability: 512.929   4.813 241.150   0.763  11.532 117.953

 ******    1 imaginary frequencies (negative Signs) ******

                      1                      2                      3
                      A                      A                      A
 Frequencies --    -23.2282                16.2589                28.8076
 Red. masses --      1.0384                 5.6753                 4.6603
 Frc consts  --      0.0003                 0.0009                 0.0023
 IR Inten    --      0.1516                 1.9815                 2.8529

                      4                      5                      6
                      A                      A                      A
 Frequencies --     36.6231                49.6797               109.8582
 Red. masses --      5.1695                 6.7929                 5.0569
 Frc consts  --      0.0041                 0.0099                 0.0360
 IR Inten    --      0.2482                 1.1145                 1.5353

                      7                      8                      9
                      A                      A                      A
 Frequencies --    118.6148               147.0665               158.3864
 Red. masses --      4.7563                 5.1892                 4.2383
 Frc consts  --      0.0394                 0.0661                 0.0626
 IR Inten    --      0.7132                 0.0746                 1.4579

                     10                     11                     12
                      A                      A                      A
 Frequencies --    173.7208               216.9104               249.0458
 Red. masses --      4.0309                 7.6052                 5.4900
 Frc consts  --      0.0717                 0.2108                 0.2006
 IR Inten    --      2.7455                 2.9573                11.3124

                     13                     14                     15
                      A                      A                      A
 Frequencies --    312.7186               324.6536               352.9326
 Red. masses --      3.6886                 4.2658                 6.4931
 Frc consts  --      0.2125                 0.2649                 0.4765
 IR Inten    --      7.6712                 2.2458                 1.8792

                     16                     17                     18
                      A                      A                      A
 Frequencies --    371.3185               415.1583               415.5446
 Red. masses --      3.7558                 3.2796                 7.8861
 Frc consts  --      0.3051                 0.3330                 0.8023
 IR Inten    --     27.8081                 0.2869                 0.9516

                     19                     20                     21
                      A                      A                      A
 Frequencies --    445.9258               467.9089               484.6831
 Red. masses --      3.9068                 1.8104                 1.4923
 Frc consts  --      0.4577                 0.2335                 0.2066
 IR Inten    --     34.2194                12.1295                33.6031

                     22                     23                     24
                      A                      A                      A
 Frequencies --    530.3286               587.6958               614.4934
 Red. masses --      1.9860                 4.6620                 1.7358
 Frc consts  --      0.3291                 0.9487                 0.3862
 IR Inten    --     38.9427                21.5513                43.4816

                     25                     26                     27
                      A                      A                      A
 Frequencies --    629.2998               659.8668               684.5064
 Red. masses --      2.8854                 3.3741                 3.0896
 Frc consts  --      0.6732                 0.8656                 0.8529
 IR Inten    --     77.5023                21.5505                29.6467

                     28                     29                     30
                      A                      A                      A
 Frequencies --    726.5746               743.9782               793.2012
 Red. masses --      3.1163                 3.4393                 4.1294
 Frc consts  --      0.9693                 1.1216                 1.5307
 IR Inten    --      1.2275                37.9850                23.0449

                     31                     32                     33
                      A                      A                      A
 Frequencies --    824.3845               847.9515               884.4874
 Red. masses --      1.4591                 1.3464                 4.8797
 Frc consts  --      0.5842                 0.5704                 2.2492
 IR Inten    --     22.8748                10.6548                33.1020

                     34                     35                     36
                      A                      A                      A
 Frequencies --    925.4289               929.8733               959.1645
 Red. masses --      4.5024                 1.2912                 1.2793
 Frc consts  --      2.2719                 0.6578                 0.6934
 IR Inten    --     44.7055                 0.0349                 0.8250

                     37                     38                     39
                      A                      A                      A
 Frequencies --    984.1609              1005.5027              1025.6881
 Red. masses --      2.1088                 1.4183                 2.7673
 Frc consts  --      1.2034                 0.8448                 1.7153
 IR Inten    --      4.8404                11.8066                 0.1027

                     40                     41                     42
                      A                      A                      A
 Frequencies --   1061.9469              1072.9479              1135.9195
 Red. masses --      1.5037                 4.3951                 1.6377
 Frc consts  --      0.9991                 2.9811                 1.2450
 IR Inten    --      2.9735                88.7108               118.6566

                     43                     44                     45
                      A                      A                      A
 Frequencies --   1156.3916              1185.6623              1194.9730
 Red. masses --      2.5507                 1.9217                 3.2500
 Frc consts  --      2.0096                 1.5917                 2.7343
 IR Inten    --    290.1473               509.9721               167.8071

                     46                     47                     48
                      A                      A                      A
 Frequencies --   1202.4385              1219.8357              1234.6841
 Red. masses --      1.1373                 2.0643                 2.9357
 Frc consts  --      0.9688                 1.8098                 2.6368
 IR Inten    --     35.2628                90.4310                 0.7734

                     49                     50                     51
                      A                      A                      A
 Frequencies --   1248.1079              1298.1575              1336.1640
 Red. masses --      2.6896                 2.9013                 2.0294
 Frc consts  --      2.4686                 2.8807                 2.1347
 IR Inten    --      9.7077               236.8288                12.1834

                     52                     53                     54
                      A                      A                      A
 Frequencies --   1342.0522              1356.1677              1413.9847
 Red. masses --      2.6636                 1.8171                 1.2511
 Frc consts  --      2.8266                 1.9690                 1.4738
 IR Inten    --     27.0545                 4.2607                 6.2104

                     55                     56                     57
                      A                      A                      A
 Frequencies --   1427.5199              1440.3654              1461.9020
 Red. masses --      1.2498                 2.5839                 1.4109
 Frc consts  --      1.5005                 3.1585                 1.7766
 IR Inten    --     45.1735                 5.0750                13.8923

                     58                     59                     60
                      A                      A                      A
 Frequencies --   1484.4366              1488.1620              1495.0907
 Red. masses --      1.0442                 1.1987                 1.1821
 Frc consts  --      1.3557                 1.5641                 1.5568
 IR Inten    --      4.0000                12.5697                55.6904

                     61                     62                     63
                      A                      A                      A
 Frequencies --   1517.4494              1551.3479              1580.8941
 Red. masses --      1.7318                 3.2587                 5.4417
 Frc consts  --      2.3495                 4.6208                 8.0128
 IR Inten    --     21.7542               163.4508               350.2545

                     64                     65                     66
                      A                      A                      A
 Frequencies --   1619.9180              1658.8829              1712.5184
 Red. masses --      5.2804                 6.0131                10.7258
 Frc consts  --      8.1641                 9.7495                18.5331
 IR Inten    --     21.3842               112.8241               199.2108

                     67                     68                     69
                      A                      A                      A
 Frequencies --   2977.1895              3024.0172              3043.7257
 Red. masses --      1.0702                 1.0376                 1.0876
 Frc consts  --      5.5892                 5.5903                 5.9365
 IR Inten    --     28.8593                60.4144                23.8352

                     70                     71                     72
                      A                      A                      A
 Frequencies --   3073.9319              3107.7840              3157.0048
 Red. masses --      1.0998                 1.0994                 1.0857
 Frc consts  --      6.1226                 6.2562                 6.3757
 IR Inten    --     20.5278                17.5754                20.8565

                     73                     74                     75
                      A                      A                      A
 Frequencies --   3162.2887              3175.4132              3222.4876
 Red. masses --      1.0887                 1.0939                 1.0914
 Frc consts  --      6.4145                 6.4989                 6.6774
 IR Inten    --     20.0757                24.7807                 1.9523

                     76                     77                     78
                      A                      A                      A
 Frequencies --   3486.9291              3543.9234              3753.9776
 Red. masses --      1.0737                 1.0751                 1.0672
 Frc consts  --      7.6918                 7.9553                 8.8605
 IR Inten    --      9.5583                14.3300               331.9913

 - Thermochemistry -
 -------------------
 Temperature   298.150 Kelvin.  Pressure   1.00000 Atm.
 Atom     1 has atomic number  6 and mass  12.00000

 Molecular mass:   222.09910 amu.
 Principal axes and moments of inertia in atomic units:
                           1         2         3
     Eigenvalues --   781.90226********************
           X            0.99998  -0.00702   0.00046
           Y            0.00702   0.99992   0.01082
           Z           -0.00054  -0.01082   0.99994
 This molecule is an asymmetric top.
 Rotational symmetry number  1.
 Warning -- assumption of classical behavior for rotation
           may cause significant error
 Rotational temperatures (Kelvin)      0.11077     0.00649     0.00619
 Rotational constants (GHZ):           2.30814     0.13530     0.12892
    1 imaginary frequencies ignored.
 Zero-point vibrational energy     567502.4 (Joules/Mol)
                                  135.63633 (Kcal/Mol)
 Warning -- explicit consideration of  23 degrees of freedom as
           vibrations may cause significant error
 Vibrational temperatures:     23.39    41.45    52.69    71.48   158.06
          (Kelvin)            170.66   211.60   227.88   249.95   312.09
                              358.32   449.93   467.10   507.79   534.24
                              597.32   597.88   641.59   673.22   697.35
                              763.02   845.56   884.12   905.42   949.40
                              984.85  1045.38  1070.42  1141.24  1186.11
                             1220.01  1272.58  1331.49  1337.88  1380.02
                             1415.99  1446.69  1475.74  1527.90  1543.73
                             1634.33  1663.79  1705.90  1719.30  1730.04
                             1755.07  1776.44  1795.75  1867.76  1922.44
                             1930.91  1951.22  2034.41  2053.88  2072.36
                             2103.35  2135.77  2141.13  2151.10  2183.27
                             2232.04  2274.55  2330.70  2386.76  2463.93
                             4283.51  4350.89  4379.24  4422.70  4471.41
                             4542.23  4549.83  4568.71  4636.44  5016.91
                             5098.92  5401.14

 Zero-point correction=                           0.216150 (Hartree/Particle)
 Thermal correction to Energy=                    0.231551
 Thermal correction to Enthalpy=                  0.232495
 Thermal correction to Gibbs Free Energy=         0.169808
 Sum of electronic and zero-point Energies=           -774.058806
 Sum of electronic and thermal Energies=              -774.043405
 Sum of electronic and thermal Enthalpies=            -774.042461
 Sum of electronic and thermal Free Energies=         -774.105148

                     E (Thermal)             CV                S
                      KCal/Mol        Cal/Mol-Kelvin    Cal/Mol-Kelvin
 Total                  145.301             56.326            131.936
 Electronic               0.000              0.000              1.377
 Translational            0.889              2.981             42.097
 Rotational               0.889              2.981             33.345
 Vibrational            143.523             50.364             55.117
 Vibration     1          0.593              1.986              7.045
 Vibration     2          0.593              1.984              5.910
 Vibration     3          0.594              1.982              5.434
 Vibration     4          0.595              1.978              4.830
 Vibration     5          0.606              1.941              3.271
 Vibration     6          0.609              1.934              3.123
 Vibration     7          0.617              1.906              2.710
 Vibration     8          0.621              1.893              2.569
 Vibration     9          0.627              1.875              2.395
 Vibration    10          0.646              1.815              1.985
 Vibration    11          0.662              1.764              1.737
 Vibration    12          0.701              1.649              1.348
 Vibration    13          0.709              1.626              1.287
 Vibration    14          0.729              1.569              1.153
 Vibration    15          0.743              1.531              1.074
 Vibration    16          0.779              1.437              0.909
 Vibration    17          0.779              1.436              0.907
 Vibration    18          0.805              1.370              0.808
 Vibration    19          0.825              1.321              0.743
 Vibration    20          0.841              1.284              0.698
 Vibration    21          0.885              1.183              0.586
 Vibration    22          0.945              1.058              0.471
 Vibration    23          0.974              1.001              0.425

                           ! Non-Optimized Parameters !
 Normal termination of Gaussian 16 at Thu May 18 13:28:27 2023.
