 Gaussian 16, Revision A.03,
 Gaussian 16:  ES64L-G16RevA.03 25-Dec-2016

 -----------------------------
 # opt freq b3lyp/6-31g(2df,p)
 -----------------------------

 -------------------
 Title Card Required
 -------------------
 Symbolic Z-matrix:
 Charge =  0 Multiplicity = 1

 SCF Done:  E(RB3LYP) =  -841.602464896     A.U. after   19 cycles
 SCF Done:  E(RB3LYP) =  -841.638324157     A.U. after   16 cycles
 SCF Done:  E(RB3LYP) =  -841.652466884     A.U. after   17 cycles
 SCF Done:  E(RB3LYP) =  -841.653856571     A.U. after   14 cycles
 SCF Done:  E(RB3LYP) =  -841.657760628     A.U. after   13 cycles
 SCF Done:  E(RB3LYP) =  -841.659561609     A.U. after   12 cycles
 SCF Done:  E(RB3LYP) =  -841.661227607     A.U. after   13 cycles
 SCF Done:  E(RB3LYP) =  -841.661888268     A.U. after   13 cycles
 SCF Done:  E(RB3LYP) =  -841.662159220     A.U. after   12 cycles
 SCF Done:  E(RB3LYP) =  -841.662255157     A.U. after   11 cycles
 SCF Done:  E(RB3LYP) =  -841.662269658     A.U. after    9 cycles
 SCF Done:  E(RB3LYP) =  -841.662273613     A.U. after   10 cycles
 SCF Done:  E(RB3LYP) =  -841.662274608     A.U. after    8 cycles
 SCF Done:  E(RB3LYP) =  -841.662274762     A.U. after    7 cycles
 Optimization completed.
    -- Stationary point found.
 Normal termination of Gaussian 16 at Sat May 20 01:16:47 2023.

 ----------------------------------------------------------------------
 #N Geom=AllCheck Guess=TCheck SCRF=Check GenChk RB3LYP/6-31G(2df,p) Fr
 eq
 ----------------------------------------------------------------------

 Structure from the checkpoint file:  "CC1CCdC1CdCdNC1d[SH]CC1.chk"
 -------------------
 Title Card Required
 -------------------
 Charge =  0 Multiplicity = 1

                         Standard orientation:
 ---------------------------------------------------------------------
 Center     Atomic      Atomic             Coordinates (Angstroms)
 Number     Number       Type             X           Y           Z
 ---------------------------------------------------------------------
      1          6           0       -1.968712    1.891946   -0.009020
      2          6           0       -2.705614    0.693780   -0.600558
      3          6           0       -4.241666    0.587232   -0.277310
      4          6           0       -3.894699   -0.724524    0.395263
      5          6           0       -2.576353   -0.645764    0.123065
      6          6           0       -1.435735   -1.494452    0.379738
      7          6           0       -0.195689   -1.225468    0.005551
      8          7           0        0.948593   -1.085253   -0.404453
      9          6           0        2.068448   -0.550564    0.145512
     10         16           0        3.456812   -0.112803   -0.829631
     11          6           0        3.716495    0.781997    0.785666
     12          6           0        2.233885    0.563514    1.165866
     13          1           0       -2.278481    2.823383   -0.496579
     14          1           0       -0.885034    1.793787   -0.135837
     15          1           0       -2.174017    1.985069    1.063162
     16          1           0       -2.497691    0.623011   -1.675674
     17          1           0       -4.895959    0.528755   -1.155992
     18          1           0       -4.619358    1.383990    0.376115
     19          1           0       -4.503545   -1.466314    0.900165
     20          1           0       -1.611619   -2.423043    0.922652
     21          1           0        3.330121    1.114109   -1.547714
     22          1           0        4.056621    1.805269    0.628859
     23          1           0        4.428057    0.213308    1.382150
     24          1           0        1.649537    1.475477    0.953926
     25          1           0        2.050068    0.278640    2.207383
 ---------------------------------------------------------------------

 SCF Done:  E(RB3LYP) =  -841.662274762     A.U. after    1 cycles

 The electronic state is 1-A.
 Alpha  occ. eigenvalues --  -88.95768 -14.34937 -10.24904 -10.22138 -10.21699
 Alpha  occ. eigenvalues --  -10.21081 -10.17473 -10.16997 -10.16959 -10.16534
 Alpha  occ. eigenvalues --  -10.16330 -10.15390  -8.01539  -5.97834  -5.97737
 Alpha  occ. eigenvalues --   -5.97329  -0.94534  -0.87963  -0.84181  -0.75031
 Alpha  occ. eigenvalues --   -0.72758  -0.70902  -0.68746  -0.62706  -0.60302
 Alpha  occ. eigenvalues --   -0.58652  -0.53947  -0.50028  -0.48980  -0.48108
 Alpha  occ. eigenvalues --   -0.45618  -0.44782  -0.43093  -0.40855  -0.39916
 Alpha  occ. eigenvalues --   -0.39778  -0.39128  -0.37765  -0.36272  -0.34922
 Alpha  occ. eigenvalues --   -0.34226  -0.33196  -0.31684  -0.29473  -0.28703
 Alpha  occ. eigenvalues --   -0.26426  -0.18165  -0.17860
 Alpha virt. eigenvalues --   -0.04753   0.00568   0.02169   0.04939   0.06095
 Alpha virt. eigenvalues --    0.08487   0.09594   0.11476   0.12527   0.13490
 Alpha virt. eigenvalues --    0.14991   0.15479   0.16079   0.16355   0.17010

 Mulliken charges:
               1
     1  C   -0.402990
     2  C   -0.091433
     3  C   -0.263599
     4  C   -0.228271
     5  C    0.404564
     6  C   -0.419293
     7  C    0.318996
     8  N   -0.312365
     9  C    0.072421
    10  S    0.063828
    11  C   -0.222561
    12  C   -0.267337
    13  H    0.108068
    14  H    0.110687
    15  H    0.112566
    16  H    0.069855
    17  H    0.092299
    18  H    0.090043
    19  H    0.079171
    20  H    0.101713
    21  H    0.057151
    22  H    0.138908
    23  H    0.158455
    24  H    0.107630
    25  H    0.121496
 Sum of Mulliken charges =  -0.00000

 Dipole moment (field-independent basis, Debye):
    X=              4.0625    Y=              2.2915    Z=              0.7591  Tot=              4.7256
 Quadrupole moment (field-independent basis, Debye-Ang):
   XX=            -69.7213   YY=            -79.5424   ZZ=            -78.0765
   XY=              5.5781   XZ=              1.9501   YZ=             -1.8757

  Exact polarizability: 258.229  24.091 117.284 -19.254  -9.116 104.885
 Approx polarizability: 376.101  45.000 188.197 -53.314 -22.924 182.355

                      1                      2                      3
                      A                      A                      A
 Frequencies --     35.5587                43.0870                58.8000
 Red. masses --      3.6166                 4.0515                 3.8512
 Frc consts  --      0.0027                 0.0044                 0.0078
 IR Inten    --      1.2274                 0.9257                 1.3091

                      4                      5                      6
                      A                      A                      A
 Frequencies --     99.4870               124.5202               195.3157
 Red. masses --      3.8258                 3.3681                 2.1442
 Frc consts  --      0.0223                 0.0308                 0.0482
 IR Inten    --      6.3169                 4.9235                 1.8008

                      7                      8                      9
                      A                      A                      A
 Frequencies --    204.2266               224.1310               244.4960
 Red. masses --      2.6082                 3.0729                 1.1850
 Frc consts  --      0.0641                 0.0910                 0.0417
 IR Inten    --      1.6935                 1.8814                 0.6104

                     10                     11                     12
                      A                      A                      A
 Frequencies --    271.9371               287.1984               371.9902
 Red. masses --      3.4921                 4.6142                 2.2200
 Frc consts  --      0.1522                 0.2242                 0.1810
 IR Inten    --      6.3152                 1.4215                 2.0497

                     13                     14                     15
                      A                      A                      A
 Frequencies --    386.2748               460.8395               529.7073
 Red. masses --      4.9396                 5.9624                 5.5910
 Frc consts  --      0.4342                 0.7461                 0.9243
 IR Inten    --      3.8717                 5.6014                10.6787

                     16                     17                     18
                      A                      A                      A
 Frequencies --    537.1674               605.6771               654.1279
 Red. masses --      6.4691                 2.8839                 3.3418
 Frc consts  --      1.0998                 0.6233                 0.8425
 IR Inten    --      4.2198                10.4511                20.0841

                     19                     20                     21
                      A                      A                      A
 Frequencies --    680.3812               709.8279               746.7221
 Red. masses --      5.5073                 4.3139                 1.3680
 Frc consts  --      1.5021                 1.2806                 0.4494
 IR Inten    --    134.1614                 3.0124                26.7524

                     22                     23                     24
                      A                      A                      A
 Frequencies --    765.9559               782.1326               815.0923
 Red. masses --      1.3043                 1.9497                 1.4275
 Frc consts  --      0.4509                 0.7027                 0.5588
 IR Inten    --    174.8385                37.6480                35.6840

                     25                     26                     27
                      A                      A                      A
 Frequencies --    832.0784               867.2869               893.8374
 Red. masses --      1.3891                 2.6428                 1.1331
 Frc consts  --      0.5666                 1.1712                 0.5334
 IR Inten    --    126.0503                 0.6225                 5.9578

                     28                     29                     30
                      A                      A                      A
 Frequencies --    923.0420               952.0355               962.7509
 Red. masses --      1.3226                 2.4240                 1.7783
 Frc consts  --      0.6639                 1.2944                 0.9712
 IR Inten    --      5.5485                 4.3389                 4.3126

                     31                     32                     33
                      A                      A                      A
 Frequencies --    990.2163              1026.0217              1056.7079
 Red. masses --      2.9426                 1.6516                 2.0160
 Frc consts  --      1.7000                 1.0244                 1.3263
 IR Inten    --      3.6247                 4.0180                18.1636

                     34                     35                     36
                      A                      A                      A
 Frequencies --   1063.9475              1083.7690              1096.5592
 Red. masses --      1.3860                 1.7442                 1.3400
 Frc consts  --      0.9244                 1.2070                 0.9494
 IR Inten    --      4.1893                 5.0788                17.0108

                     37                     38                     39
                      A                      A                      A
 Frequencies --   1103.4220              1168.3995              1184.2688
 Red. masses --      1.9197                 1.7893                 1.3220
 Frc consts  --      1.3771                 1.4392                 1.0924
 IR Inten    --      5.8832                 1.3538                 5.4736

                     40                     41                     42
                      A                      A                      A
 Frequencies --   1206.0009              1213.6014              1229.6616
 Red. masses --      1.4666                 1.8991                 1.3085
 Frc consts  --      1.2568                 1.6480                 1.1657
 IR Inten    --      7.9079                14.3939                 4.9141

                     43                     44                     45
                      A                      A                      A
 Frequencies --   1235.8530              1255.7201              1280.9973
 Red. masses --      1.5088                 1.7897                 1.9263
 Frc consts  --      1.3577                 1.6627                 1.8624
 IR Inten    --     15.8620                 5.6883                 3.2352

                     46                     47                     48
                      A                      A                      A
 Frequencies --   1311.2680              1353.9119              1400.8236
 Red. masses --      2.1141                 1.7073                 1.2479
 Frc consts  --      2.1417                 1.8439                 1.4428
 IR Inten    --     52.2863                16.5350                 2.3076

                     49                     50                     51
                      A                      A                      A
 Frequencies --   1445.9014              1462.7552              1483.2296
 Red. masses --      3.1591                 1.2448                 1.1208
 Frc consts  --      3.8912                 1.5692                 1.4527
 IR Inten    --      1.3236                 0.8561                 4.9883

                     52                     53                     54
                      A                      A                      A
 Frequencies --   1492.4156              1497.1437              1503.2323
 Red. masses --      1.0476                 1.0537                 1.1051
 Frc consts  --      1.3748                 1.3915                 1.4714
 IR Inten    --      2.2346                 4.7222                 2.7199

                     55                     56                     57
                      A                      A                      A
 Frequencies --   1673.4377              1989.5034              2082.1152
 Red. masses --      7.1940                 1.0433                11.9221
 Frc consts  --     11.8697                 2.4330                30.4517
 IR Inten    --     72.7746               906.3861               416.9360

                     58                     59                     60
                      A                      A                      A
 Frequencies --   2953.7493              3011.5292              3020.5805
 Red. masses --      1.0699                 1.0562                 1.0667
 Frc consts  --      5.5000                 5.6438                 5.7340
 IR Inten    --     48.8116               102.5258                19.0074

                     61                     62                     63
                      A                      A                      A
 Frequencies --   3023.3246              3050.2935              3056.2984
 Red. masses --      1.0514                 1.1048                 1.0904
 Frc consts  --      5.6623                 6.0567                 6.0011
 IR Inten    --     26.2618                46.4421                23.4005

                     64                     65                     66
                      A                      A                      A
 Frequencies --   3088.3136              3094.7121              3102.2455
 Red. masses --      1.1008                 1.1015                 1.0565
 Frc consts  --      6.1861                 6.2152                 5.9904
 IR Inten    --     37.8267                34.3299                29.5496

                     67                     68                     69
                      A                      A                      A
 Frequencies --   3112.6959              3176.3715              3184.8096
 Red. masses --      1.0841                 1.1112                 1.0972
 Frc consts  --      6.1884                 6.6054                 6.5568
 IR Inten    --     12.2469                 5.7128                25.5426

 - Thermochemistry -
 -------------------
 Temperature   298.150 Kelvin.  Pressure   1.00000 Atm.
 Atom     1 has atomic number  6 and mass  12.00000

 Molecular mass:   179.07687 amu.
 Principal axes and moments of inertia in atomic units:
                           1         2         3
     Eigenvalues --   885.710505441.827085791.35992
           X            0.99997   0.00188   0.00783
           Y           -0.00170   0.99973  -0.02320
           Z           -0.00787   0.02318   0.99970
 This molecule is an asymmetric top.
 Rotational symmetry number  1.
 Warning -- assumption of classical behavior for rotation
           may cause significant error
 Rotational temperatures (Kelvin)      0.09779     0.01592     0.01496
 Rotational constants (GHZ):           2.03762     0.33164     0.31163
 Zero-point vibrational energy     526545.3 (Joules/Mol)
                                  125.84734 (Kcal/Mol)
 Warning -- explicit consideration of  17 degrees of freedom as
           vibrations may cause significant error
 Vibrational temperatures:     51.16    61.99    84.60   143.14   179.16
          (Kelvin)            281.02   293.84   322.47   351.78   391.26
                              413.21   535.21   555.76   663.05   762.13
                              772.86   871.43   941.14   978.92  1021.28
                             1074.37  1102.04  1125.31  1172.74  1197.18
                             1247.83  1286.03  1328.05  1369.77  1385.18
                             1424.70  1476.22  1520.37  1530.78  1559.30
                             1577.70  1587.58  1681.07  1703.90  1735.17
                             1746.10  1769.21  1778.12  1806.70  1843.07
                             1886.62  1947.98  2015.47  2080.33  2104.58
                             2134.04  2147.25  2154.06  2162.82  2407.70
                             2862.45  2995.70  4249.79  4332.92  4345.94
                             4349.89  4388.69  4397.33  4443.39  4452.60
                             4463.44  4478.48  4570.09  4582.23

 Zero-point correction=                           0.200550 (Hartree/Particle)
 Thermal correction to Energy=                    0.213264
 Thermal correction to Enthalpy=                  0.214209
 Thermal correction to Gibbs Free Energy=         0.160067
 Sum of electronic and zero-point Energies=           -841.461724
 Sum of electronic and thermal Energies=              -841.449010
 Sum of electronic and thermal Enthalpies=            -841.448066
 Sum of electronic and thermal Free Energies=         -841.502208

                     E (Thermal)             CV                S
                      KCal/Mol        Cal/Mol-Kelvin    Cal/Mol-Kelvin
 Total                  133.825             47.201            113.951
 Electronic               0.000              0.000              0.000
 Translational            0.889              2.981             41.455
 Rotational               0.889              2.981             31.701
 Vibrational            132.048             41.239             40.795
 Vibration     1          0.594              1.982              5.492
 Vibration     2          0.595              1.980              5.112
 Vibration     3          0.596              1.974              4.497
 Vibration     4          0.604              1.949              3.464
 Vibration     5          0.610              1.928              3.029
 Vibration     6          0.636              1.846              2.177
 Vibration     7          0.640              1.834              2.095
 Vibration     8          0.649              1.804              1.925
 Vibration     9          0.660              1.772              1.770
 Vibration    10          0.675              1.725              1.584
 Vibration    11          0.684              1.697              1.490
 Vibration    12          0.744              1.530              1.072
 Vibration    13          0.755              1.499              1.014
 Vibration    14          0.819              1.337              0.764
 Vibration    15          0.885              1.184              0.588
 Vibration    16          0.892              1.168              0.571
 Vibration    17          0.964              1.020              0.440

                           ! Non-Optimized Parameters !
 Normal termination of Gaussian 16 at Sat May 20 02:14:23 2023.
