 Gaussian 16, Revision A.03,
 Gaussian 16:  ES64L-G16RevA.03 25-Dec-2016

 -----------------------------
 # opt freq b3lyp/6-31g(2df,p)
 -----------------------------

 -------------------
 Title Card Required
 -------------------
 Symbolic Z-matrix:
 Charge =  0 Multiplicity = 1

 SCF Done:  E(RB3LYP) =  -839.035523468     A.U. after   16 cycles
 SCF Done:  E(RB3LYP) =  -839.088684808     A.U. after   14 cycles
 SCF Done:  E(RB3LYP) =  -839.139212870     A.U. after   16 cycles
 SCF Done:  E(RB3LYP) =  -839.153061726     A.U. after   13 cycles
 SCF Done:  E(RB3LYP) =  -839.155589974     A.U. after   12 cycles
 SCF Done:  E(RB3LYP) =  -839.155804438     A.U. after    9 cycles
 SCF Done:  E(RB3LYP) =  -839.156113677     A.U. after   11 cycles
 SCF Done:  E(RB3LYP) =  -839.156348499     A.U. after   12 cycles
 SCF Done:  E(RB3LYP) =  -839.156765373     A.U. after   11 cycles
 SCF Done:  E(RB3LYP) =  -839.158691061     A.U. after   13 cycles
 SCF Done:  E(RB3LYP) =  -839.221153230     A.U. after   12 cycles
 SCF Done:  E(RB3LYP) =  -839.221160678     A.U. after    9 cycles
 SCF Done:  E(RB3LYP) =  -839.221166500     A.U. after   10 cycles
 SCF Done:  E(RB3LYP) =  -839.221167963     A.U. after    8 cycles
 SCF Done:  E(RB3LYP) =  -839.221168495     A.U. after    8 cycles
 SCF Done:  E(RB3LYP) =  -839.221169053     A.U. after    8 cycles
 SCF Done:  E(RB3LYP) =  -839.221169318     A.U. after    8 cycles
 SCF Done:  E(RB3LYP) =  -839.221169546     A.U. after    8 cycles
 SCF Done:  E(RB3LYP) =  -839.221169682     A.U. after    8 cycles
 Optimization completed.
    -- Stationary point found.
 Normal termination of Gaussian 16 at Sat May 20 08:04:01 2023.

 ----------------------------------------------------------------------
 #N Geom=AllCheck Guess=TCheck SCRF=Check GenChk RB3LYP/6-31G(2df,p) Fr
 eq
 ----------------------------------------------------------------------

 Structure from the checkpoint file:  "CC1dCCdNC2dCC2dCSCdC1.chk"
 -------------------
 Title Card Required
 -------------------
 Charge =  0 Multiplicity = 1

                         Standard orientation:
 ---------------------------------------------------------------------
 Center     Atomic      Atomic             Coordinates (Angstroms)
 Number     Number       Type             X           Y           Z
 ---------------------------------------------------------------------
      1          6           0        3.600437   -0.649771    0.330877
      2          6           0        2.147095   -0.506868   -0.070398
      3          6           0        1.338371   -1.603719    0.051203
      4          6           0       -0.025716   -1.513726   -0.328749
      5          7           0       -1.049646   -2.196044    0.127990
      6          6           0       -2.145714   -1.425314   -0.026015
      7          6           0       -3.147254   -0.704861   -0.555075
      8          6           0       -2.233917   -0.040370    0.308035
      9          6           0       -1.320778    0.749140    0.914661
     10         16           0       -0.682931    2.214695    0.196927
     11          6           0        0.855805    1.789044   -0.535716
     12          6           0        1.837108    0.835405   -0.575525
     13          1           0        3.835215   -1.667031    0.650679
     14          1           0        3.854306    0.039588    1.144031
     15          1           0        4.255786   -0.395053   -0.511143
     16          1           0        1.710803   -2.501861    0.532933
     17          1           0       -0.211568   -0.689924   -1.022351
     18          1           0       -3.831865   -0.614928   -1.386864
     19          1           0       -0.635823    0.245537    1.589226
     20          1           0        1.143563    2.705899   -1.052513
     21          1           0        2.721377    1.241216   -1.070555
 ---------------------------------------------------------------------

 SCF Done:  E(RB3LYP) =  -839.221169682     A.U. after    1 cycles

 The electronic state is 1-A.
 Alpha  occ. eigenvalues --  -88.89426 -14.34769 -10.26556 -10.24554 -10.24089
 Alpha  occ. eigenvalues --  -10.22970 -10.22733 -10.22594 -10.19933 -10.19428
 Alpha  occ. eigenvalues --  -10.19323 -10.18381  -7.95374  -5.91849  -5.91435
 Alpha  occ. eigenvalues --   -5.91077  -0.97776  -0.89868  -0.83910  -0.80547
 Alpha  occ. eigenvalues --   -0.75385  -0.72977  -0.68226  -0.63796  -0.60216
 Alpha  occ. eigenvalues --   -0.56972  -0.54340  -0.52677  -0.48783  -0.47644
 Alpha  occ. eigenvalues --   -0.46717  -0.43786  -0.42788  -0.42278  -0.39985
 Alpha  occ. eigenvalues --   -0.39645  -0.38224  -0.37385  -0.35148  -0.34115
 Alpha  occ. eigenvalues --   -0.32287  -0.30261  -0.29114  -0.25336  -0.21659
 Alpha  occ. eigenvalues --   -0.18989
 Alpha virt. eigenvalues --   -0.07414  -0.02566  -0.00119   0.01679   0.06039
 Alpha virt. eigenvalues --    0.06739   0.09289   0.10524   0.11060   0.11637
 Alpha virt. eigenvalues --    0.13148   0.14144   0.15636   0.16852   0.17713

 Mulliken charges:
               1
     1  C   -0.471408
     2  C    0.305093
     3  C   -0.237333
     4  C    0.031325
     5  N   -0.321791
     6  C    0.293613
     7  C   -0.324672
     8  C    0.301131
     9  C   -0.344794
    10  S   -0.101984
    11  C   -0.098058
    12  C   -0.170755
    13  H    0.127894
    14  H    0.142281
    15  H    0.136961
    16  H    0.104412
    17  H    0.126898
    18  H    0.157579
    19  H    0.119811
    20  H    0.127483
    21  H    0.096316
 Sum of Mulliken charges =  -0.00000

 Dipole moment (field-independent basis, Debye):
    X=              1.5581    Y=             -0.5539    Z=             -1.5762  Tot=              2.2845
 Quadrupole moment (field-independent basis, Debye-Ang):
   XX=            -66.2944   YY=            -82.5544   ZZ=            -76.6919
   XY=              1.3936   XZ=              3.8353   YZ=             -1.5847

  Exact polarizability: 192.421   4.550 149.202   4.875  -1.568  79.771
 Approx polarizability: 336.128  17.017 295.272   1.804   0.572 144.690

                      1                      2                      3
                      A                      A                      A
 Frequencies --     79.7930                86.9330               128.0676
 Red. masses --      3.6182                 3.3034                 3.6168
 Frc consts  --      0.0136                 0.0147                 0.0350
 IR Inten    --      2.4455                 1.0437                 1.2516

                      4                      5                      6
                      A                      A                      A
 Frequencies --    152.9777               169.2791               232.0728
 Red. masses --      1.5149                 3.1255                 4.6469
 Frc consts  --      0.0209                 0.0528                 0.1475
 IR Inten    --      0.3493                 0.1365                12.5253

                      7                      8                      9
                      A                      A                      A
 Frequencies --    239.0478               309.3516               326.0430
 Red. masses --      4.5227                 3.5626                 4.4901
 Frc consts  --      0.1523                 0.2009                 0.2812
 IR Inten    --      3.3583                 4.6942                22.6466

                     10                     11                     12
                      A                      A                      A
 Frequencies --    373.4937               396.1760               426.2846
 Red. masses --      2.5667                 3.4194                 4.2762
 Frc consts  --      0.2110                 0.3162                 0.4578
 IR Inten    --      6.6198                 2.9541                14.9336

                     13                     14                     15
                      A                      A                      A
 Frequencies --    467.8534               514.1710               565.0248
 Red. masses --      5.4270                 4.5637                 2.7073
 Frc consts  --      0.6999                 0.7109                 0.5092
 IR Inten    --      3.4925                 5.8464                39.6281

                     16                     17                     18
                      A                      A                      A
 Frequencies --    583.9026               632.5587               652.5635
 Red. masses --      4.1418                 4.2395                 2.3869
 Frc consts  --      0.8320                 0.9995                 0.5989
 IR Inten    --     28.3627                22.7271                 8.4822

                     19                     20                     21
                      A                      A                      A
 Frequencies --    698.8267               714.5406               752.5627
 Red. masses --      5.3169                 2.4801                 2.6007
 Frc consts  --      1.5299                 0.7461                 0.8678
 IR Inten    --      3.3373                48.5166                 3.8180

                     22                     23                     24
                      A                      A                      A
 Frequencies --    759.3891               788.7869               863.9379
 Red. masses --      1.8313                 1.9748                 1.5560
 Frc consts  --      0.6222                 0.7239                 0.6843
 IR Inten    --     32.8603                47.3478                27.1797

                     25                     26                     27
                      A                      A                      A
 Frequencies --    879.3986               917.5348               959.5723
 Red. masses --      3.0741                 2.9021                 1.9395
 Frc consts  --      1.4007                 1.4395                 1.0522
 IR Inten    --     14.4916                 7.4346                 7.2054

                     28                     29                     30
                      A                      A                      A
 Frequencies --    974.4071              1015.4597              1025.6010
 Red. masses --      1.7849                 1.6272                 3.2614
 Frc consts  --      0.9985                 0.9886                 2.0212
 IR Inten    --     20.1562                 8.9576                 2.1845

                     31                     32                     33
                      A                      A                      A
 Frequencies --   1041.7986              1061.0451              1089.1473
 Red. masses --      1.7519                 1.5360                 1.6366
 Frc consts  --      1.1203                 1.0189                 1.1439
 IR Inten    --      5.7892                 8.3525                 3.2097

                     34                     35                     36
                      A                      A                      A
 Frequencies --   1128.4506              1233.2099              1311.3945
 Red. masses --      3.7420                 2.3783                 1.2314
 Frc consts  --      2.8075                 2.1310                 1.2477
 IR Inten    --      6.9331                 6.5081                 4.6054

                     37                     38                     39
                      A                      A                      A
 Frequencies --   1318.2349              1369.5013              1405.7306
 Red. masses --      1.6048                 1.2863                 1.2748
 Frc consts  --      1.6431                 1.4214                 1.4842
 IR Inten    --      1.6647                19.0359                 1.7936

                     40                     41                     42
                      A                      A                      A
 Frequencies --   1416.2374              1425.3363              1476.3741
 Red. masses --      1.4911                 1.4006                 1.0813
 Frc consts  --      1.7621                 1.6765                 1.3886
 IR Inten    --     16.0520                78.5190                 7.4507

                     43                     44                     45
                      A                      A                      A
 Frequencies --   1483.5864              1498.7417              1564.1127
 Red. masses --      1.1367                 3.4412                 5.6185
 Frc consts  --      1.4741                 4.5543                 8.0985
 IR Inten    --      5.8953                 3.5314               143.9650

                     46                     47                     48
                      A                      A                      A
 Frequencies --   1581.9412              1634.8312              1803.9039
 Red. masses --      4.8737                 3.7548                 8.2887
 Frc consts  --      7.1860                 5.9127                15.8915
 IR Inten    --     29.5724               273.2698               145.5375

                     49                     50                     51
                      A                      A                      A
 Frequencies --   3026.7887              3079.2162              3081.1685
 Red. masses --      1.0382                 1.0971                 1.0849
 Frc consts  --      5.6039                 6.1290                 6.0686
 IR Inten    --     19.4731                10.2966                 9.1130

                     52                     53                     54
                      A                      A                      A
 Frequencies --   3086.9047              3117.7412              3126.3807
 Red. masses --      1.0820                 1.0873                 1.1002
 Frc consts  --      6.0746                 6.2271                 6.3357
 IR Inten    --     10.6479                13.1707                17.8406

                     55                     56                     57
                      A                      A                      A
 Frequencies --   3157.2384              3183.5080              3219.3100
 Red. masses --      1.0841                 1.0894                 1.1093
 Frc consts  --      6.3669                 6.5053                 6.7737
 IR Inten    --      5.3956                 6.6573                 1.8339

 - Thermochemistry -
 -------------------
 Temperature   298.150 Kelvin.  Pressure   1.00000 Atm.
 Atom     1 has atomic number  6 and mass  12.00000

 Molecular mass:   175.04557 amu.
 Principal axes and moments of inertia in atomic units:
                           1         2         3
     Eigenvalues --  1536.653512419.789053696.05218
           X            0.99985  -0.01394   0.00985
           Y            0.01406   0.99983  -0.01224
           Z           -0.00968   0.01238   0.99988
 This molecule is an asymmetric top.
 Rotational symmetry number  1.
 Warning -- assumption of classical behavior for rotation
           may cause significant error
 Rotational temperatures (Kelvin)      0.05637     0.03579     0.02343
 Rotational constants (GHZ):           1.17446     0.74583     0.48829
 Zero-point vibrational energy     416345.0 (Joules/Mol)
                                   99.50884 (Kcal/Mol)
 Warning -- explicit consideration of  16 degrees of freedom as
           vibrations may cause significant error
 Vibrational temperatures:    114.80   125.08   184.26   220.10   243.55
          (Kelvin)            333.90   343.94   445.09   469.10   537.37
                              570.01   613.33   673.14   739.78   812.94
                              840.11   910.11   938.89  1005.46  1028.06
                             1082.77  1092.59  1134.89  1243.01  1265.26
                             1320.13  1380.61  1401.95  1461.02  1475.61
                             1498.92  1526.61  1567.04  1623.59  1774.31
                             1886.80  1896.65  1970.41  2022.53  2037.65
                             2050.74  2124.17  2134.55  2156.35  2250.41
                             2276.06  2352.16  2595.42  4354.87  4430.31
                             4433.11  4441.37  4485.73  4498.16  4542.56
                             4580.36  4631.87

 Zero-point correction=                           0.158577 (Hartree/Particle)
 Thermal correction to Energy=                    0.169718
 Thermal correction to Enthalpy=                  0.170662
 Thermal correction to Gibbs Free Energy=         0.121701
 Sum of electronic and zero-point Energies=           -839.062592
 Sum of electronic and thermal Energies=              -839.051452
 Sum of electronic and thermal Enthalpies=            -839.050508
 Sum of electronic and thermal Free Energies=         -839.099469

                     E (Thermal)             CV                S
                      KCal/Mol        Cal/Mol-Kelvin    Cal/Mol-Kelvin
 Total                  106.499             42.811            103.047
 Electronic               0.000              0.000              0.000
 Translational            0.889              2.981             41.387
 Rotational               0.889              2.981             30.997
 Vibrational            104.722             36.850             30.663
 Vibration     1          0.600              1.963              3.896
 Vibration     2          0.601              1.958              3.728
 Vibration     3          0.611              1.925              2.975
 Vibration     4          0.619              1.899              2.635
 Vibration     5          0.625              1.880              2.443
 Vibration     6          0.653              1.792              1.863
 Vibration     7          0.657              1.781              1.810
 Vibration     8          0.699              1.656              1.366
 Vibration     9          0.710              1.623              1.280
 Vibration    10          0.745              1.527              1.065
 Vibration    11          0.763              1.478              0.977
 Vibration    12          0.788              1.413              0.871
 Vibration    13          0.825              1.321              0.744
 Vibration    14          0.869              1.219              0.624
 Vibration    15          0.921              1.107              0.514
 Vibration    16          0.941              1.066              0.478

 Optimization completed.
    -- Stationary point found.
 Normal termination of Gaussian 16 at Sat May 20 08:55:43 2023.
