 Gaussian 16, Revision A.03,
 Gaussian 16:  ES64L-G16RevA.03 25-Dec-2016

 -----------------------------
 # opt freq b3lyp/6-31g(2df,p)
 -----------------------------

 -------------------
 Title Card Required
 -------------------
 Symbolic Z-matrix:
 Charge =  0 Multiplicity = 1

 SCF Done:  E(RB3LYP) =  -1136.65545529     A.U. after   20 cycles
 SCF Done:  E(RB3LYP) =  -1136.71191668     A.U. after   15 cycles
 SCF Done:  E(RB3LYP) =  -1136.76469861     A.U. after   16 cycles
 SCF Done:  E(RB3LYP) =  -1136.78180417     A.U. after   15 cycles
 SCF Done:  E(RB3LYP) =  -1136.79660419     A.U. after   14 cycles
 SCF Done:  E(RB3LYP) =  -1136.81145257     A.U. after   14 cycles
 SCF Done:  E(RB3LYP) =  -1136.81884643     A.U. after   13 cycles
 SCF Done:  E(RB3LYP) =  -1136.82146199     A.U. after   12 cycles
 SCF Done:  E(RB3LYP) =  -1136.82281981     A.U. after   14 cycles
 SCF Done:  E(RB3LYP) =  -1136.82339187     A.U. after   13 cycles
 SCF Done:  E(RB3LYP) =  -1136.83796541     A.U. after   11 cycles
 SCF Done:  E(RB3LYP) =  -1136.83801046     A.U. after   10 cycles
 SCF Done:  E(RB3LYP) =  -1136.83803071     A.U. after   10 cycles
 SCF Done:  E(RB3LYP) =  -1136.83803724     A.U. after    9 cycles
 SCF Done:  E(RB3LYP) =  -1136.83804009     A.U. after    8 cycles
 SCF Done:  E(RB3LYP) =  -1136.83804078     A.U. after    8 cycles
 SCF Done:  E(RB3LYP) =  -1136.83804141     A.U. after    7 cycles
 SCF Done:  E(RB3LYP) =  -1136.83804179     A.U. after    7 cycles
 SCF Done:  E(RB3LYP) =  -1136.83804203     A.U. after    7 cycles
 Optimization completed.
    -- Stationary point found.
 Normal termination of Gaussian 16 at Sat May 20 10:41:16 2023.

 ----------------------------------------------------------------------
 #N Geom=AllCheck Guess=TCheck SCRF=Check GenChk RB3LYP/6-31G(2df,p) Fr
 eq
 ----------------------------------------------------------------------

 Structure from the checkpoint file:  "CC1dCCdCC2dC3CdC3SCqNNrNdNNC2dC1.chk"
 -------------------
 Title Card Required
 -------------------
 Charge =  0 Multiplicity = 1

                         Standard orientation:
 ---------------------------------------------------------------------
 Center     Atomic      Atomic             Coordinates (Angstroms)
 Number     Number       Type             X           Y           Z
 ---------------------------------------------------------------------
      1          6           0        4.507644   -1.992931    0.361420
      2          6           0        3.621972   -0.819586    0.017048
      3          6           0        4.164032    0.401343   -0.184097
      4          6           0        3.503652    1.649185   -0.528178
      5          6           0        2.194311    1.962483   -0.511569
      6          6           0        1.042651    1.128289   -0.166244
      7          6           0       -0.141773    1.713496    0.117810
      8          6           0       -0.996396    2.832610    0.340882
      9          6           0       -1.540564    1.624389    0.477550
     10         16           0       -2.927721    0.747369    0.976295
     11          6           0       -2.810348   -1.035169    0.297365
     12          7           0       -2.757935   -1.042283   -1.154092
     13          7           0       -3.951256   -0.671144   -1.829777
     14          7           0       -1.824450   -1.881648    0.965943
     15          7           0       -0.588399   -1.761405    0.730177
     16          7           0       -0.160830   -0.932591   -0.224308
     17          6           0        1.130466   -0.343072   -0.167173
     18          6           0        2.206538   -1.151736   -0.111381
     19          1           0        5.558973   -1.702083    0.419615
     20          1           0        4.413498   -2.790341   -0.387059
     21          1           0        4.219551   -2.434507    1.323799
     22          1           0        5.245172    0.475430   -0.091277
     23          1           0        4.181231    2.452903   -0.806372
     24          1           0        1.935833    2.986775   -0.772683
     25          1           0       -1.101503    3.896897    0.462417
     26          1           0       -3.787246   -1.374790    0.674860
     27          1           0       -2.490487   -1.971179   -1.468331
     28          1           0       -3.987556    0.343783   -1.844571
     29          1           0       -4.772035   -0.987126   -1.307238
     30          1           0       -0.865105   -0.431944   -0.764520
     31          1           0        1.980170   -2.214052   -0.135555
 ---------------------------------------------------------------------

 SCF Done:  E(RB3LYP) =  -1136.83804203     A.U. after    1 cycles

 The electronic state is 1-A.
 Alpha  occ. eigenvalues --  -88.91568 -14.41765 -14.38480 -14.38093 -14.36290
 Alpha  occ. eigenvalues --  -14.35825 -10.29240 -10.26071 -10.23388 -10.22964
 Alpha  occ. eigenvalues --  -10.22557 -10.18822 -10.18708 -10.18393 -10.17503
 Alpha  occ. eigenvalues --  -10.17438 -10.17338 -10.17202  -7.97725  -5.94203
 Alpha  occ. eigenvalues --   -5.93805  -5.93345  -1.07490  -0.99631  -0.93030
 Alpha  occ. eigenvalues --   -0.91921  -0.83396  -0.82249  -0.78785  -0.77450
 Alpha  occ. eigenvalues --   -0.76040  -0.70925  -0.70229  -0.66752  -0.64613
 Alpha  occ. eigenvalues --   -0.60811  -0.58934  -0.56363  -0.55410  -0.54240
 Alpha  occ. eigenvalues --   -0.52596  -0.52183  -0.51021  -0.48742  -0.47076
 Alpha  occ. eigenvalues --   -0.45524  -0.45277  -0.43255  -0.41918  -0.41296
 Alpha  occ. eigenvalues --   -0.40782  -0.39807  -0.38685  -0.37808  -0.37020
 Alpha  occ. eigenvalues --   -0.35546  -0.35106  -0.33651  -0.33287  -0.31762
 Alpha  occ. eigenvalues --   -0.29696  -0.29144  -0.27596  -0.27016  -0.25523
 Alpha  occ. eigenvalues --   -0.24511  -0.23949  -0.15624
 Alpha virt. eigenvalues --   -0.05336  -0.03392  -0.02869   0.00527   0.02716
 Alpha virt. eigenvalues --    0.04773   0.06393   0.09297   0.10090   0.10325
 Alpha virt. eigenvalues --    0.10964   0.11599   0.12068   0.12718   0.13699

 Mulliken charges:
               1
     1  C   -0.478455
     2  C    0.250233
     3  C   -0.183903
     4  C   -0.106256
     5  C   -0.131975
     6  C   -0.178939
     7  C    0.318213
     8  C   -0.329886
     9  C    0.103729
    10  S   -0.098136
    11  C    0.012097
    12  N   -0.273798
    13  N   -0.455884
    14  N   -0.184758
    15  N   -0.052909
    16  N   -0.311679
    17  C    0.276998
    18  C   -0.200427
    19  H    0.119061
    20  H    0.125411
    21  H    0.131555
    22  H    0.078971
    23  H    0.081814
    24  H    0.082677
    25  H    0.168505
    26  H    0.122496
    27  H    0.263582
    28  H    0.262553
    29  H    0.230910
    30  H    0.267211
    31  H    0.090989
 Sum of Mulliken charges =  -0.00000

 Dipole moment (field-independent basis, Debye):
    X=             -2.2590    Y=              1.9220    Z=             -1.3143  Tot=              3.2442
 Quadrupole moment (field-independent basis, Debye-Ang):
   XX=            -97.3648   YY=           -103.3563   ZZ=           -119.5256
   XY=             -2.2229   XZ=              1.8482   YZ=              3.3808

  Exact polarizability: 308.311  -9.794 198.810 -15.750  -6.846 105.382
 Approx polarizability: 492.485 -23.059 355.980 -46.834 -18.766 185.801

                      1                      2                      3
                      A                      A                      A
 Frequencies --     29.6417                65.9056                80.6276
 Red. masses --      5.2769                 4.9256                 5.6818
 Frc consts  --      0.0027                 0.0126                 0.0218
 IR Inten    --      0.4661                 1.8838                 0.3231

                      4                      5                      6
                      A                      A                      A
 Frequencies --     97.1270               133.0328               149.5283
 Red. masses --      5.4956                 4.6639                 3.2885
 Frc consts  --      0.0305                 0.0486                 0.0433
 IR Inten    --      0.3281                 2.1715                 0.9285

                      7                      8                      9
                      A                      A                      A
 Frequencies --    167.6150               190.9888               205.2501
 Red. masses --      1.5885                 2.3664                 4.3600
 Frc consts  --      0.0263                 0.0509                 0.1082
 IR Inten    --      0.6997                 1.8058                 1.7114

                     10                     11                     12
                      A                      A                      A
 Frequencies --    227.3025               239.3232               245.8489
 Red. masses --      3.2986                 4.0019                 3.0078
 Frc consts  --      0.1004                 0.1350                 0.1071
 IR Inten    --      1.0263                 3.6347                 8.0002

                     13                     14                     15
                      A                      A                      A
 Frequencies --    289.8726               313.9181               320.2046
 Red. masses --      7.0701                 2.6324                 2.6374
 Frc consts  --      0.3500                 0.1528                 0.1593
 IR Inten    --      2.4866                16.7883                 3.3904

                     16                     17                     18
                      A                      A                      A
 Frequencies --    335.3348               354.5913               386.5578
 Red. masses --      2.6574                 3.5058                 5.1916
 Frc consts  --      0.1761                 0.2597                 0.4571
 IR Inten    --     12.4318                 6.7102                 2.0503

                     19                     20                     21
                      A                      A                      A
 Frequencies --    426.7346               447.9984               479.1640
 Red. masses --      4.9446                 4.9717                 5.3511
 Frc consts  --      0.5305                 0.5879                 0.7239
 IR Inten    --     15.7118                 4.3872                 1.7943

                     22                     23                     24
                      A                      A                      A
 Frequencies --    480.8460               500.3904               519.2700
 Red. masses --      5.0702                 4.5239                 7.2467
 Frc consts  --      0.6907                 0.6674                 1.1513
 IR Inten    --      7.7832                21.9281                 4.0562

                     25                     26                     27
                      A                      A                      A
 Frequencies --    521.4087               585.5445               603.0208
 Red. masses --      4.8439                 3.6867                 2.8743
 Frc consts  --      0.7759                 0.7447                 0.6158
 IR Inten    --     14.3336                 9.4667                 0.5714

                     28                     29                     30
                      A                      A                      A
 Frequencies --    611.6897               636.6811               681.4831
 Red. masses --      4.7978                 3.2774                 4.5112
 Frc consts  --      1.0577                 0.7827                 1.2344
 IR Inten    --      3.7687                 1.0359                13.7482

                     31                     32                     33
                      A                      A                      A
 Frequencies --    701.3965               731.6069               742.7644
 Red. masses --      4.5185                 1.6197                 2.7840
 Frc consts  --      1.3097                 0.5108                 0.9049
 IR Inten    --      8.2541                24.1914                13.6094

                     34                     35                     36
                      A                      A                      A
 Frequencies --    782.7689               803.4278               841.5572
 Red. masses --      1.6741                 2.6961                 1.8396
 Frc consts  --      0.6044                 1.0254                 0.7676
 IR Inten    --     12.2537                47.6319                81.6920

                     37                     38                     39
                      A                      A                      A
 Frequencies --    877.1638               882.1080               900.0108
 Red. masses --      1.4719                 2.7958                 1.5203
 Frc consts  --      0.6673                 1.2817                 0.7256
 IR Inten    --      2.2725                41.7324                 9.4261

                     40                     41                     42
                      A                      A                      A
 Frequencies --    934.8407               944.9592               946.8630
 Red. masses --      5.0442                 2.2032                 1.8040
 Frc consts  --      2.5973                 1.1591                 0.9529
 IR Inten    --     56.7996                37.8397                72.9412

                     43                     44                     45
                      A                      A                      A
 Frequencies --    966.9747               986.9023              1001.4432
 Red. masses --      2.5363                 1.2715                 2.2169
 Frc consts  --      1.3973                 0.7296                 1.3099
 IR Inten    --      0.9140                 0.9743                 2.9676

                     46                     47                     48
                      A                      A                      A
 Frequencies --   1042.5118              1064.0632              1075.0112
 Red. masses --      2.9409                 1.5263                 2.2519
 Frc consts  --      1.8832                 1.0182                 1.5333
 IR Inten    --     20.9692                 3.2807                 5.0975

                     49                     50                     51
                      A                      A                      A
 Frequencies --   1105.6965              1118.3881              1135.4886
 Red. masses --      3.8927                 4.3410                 3.9777
 Frc consts  --      2.8040                 3.1991                 3.0217
 IR Inten    --     15.0723                36.4282                 8.4832

                     52                     53                     54
                      A                      A                      A
 Frequencies --   1177.2330              1188.6323              1216.6777
 Red. masses --      3.0205                 2.3535                 2.8635
 Frc consts  --      2.4663                 1.9591                 2.4974
 IR Inten    --    197.0212                18.7614                71.9262

                     55                     56                     57
                      A                      A                      A
 Frequencies --   1261.1873              1272.6772              1298.3223
 Red. masses --      2.5414                 1.1923                 1.2123
 Frc consts  --      2.3816                 1.1378                 1.2040
 IR Inten    --     17.7048                20.4883                31.2221

                     58                     59                     60
                      A                      A                      A
 Frequencies --   1302.1113              1352.4309              1380.2003
 Red. masses --      1.2934                 1.2252                 1.4347
 Frc consts  --      1.2921                 1.3204                 1.6103
 IR Inten    --      3.0222                42.9116                 2.3391

                     61                     62                     63
                      A                      A                      A
 Frequencies --   1410.9639              1419.2323              1452.2833
 Red. masses --      1.2554                 1.8149                 1.6238
 Frc consts  --      1.4726                 2.1538                 2.0178
 IR Inten    --      0.4362                 5.5362                 0.4206

                     64                     65                     66
                      A                      A                      A
 Frequencies --   1474.2657              1476.0401              1493.7667
 Red. masses --      1.3612                 1.0494                 1.0889
 Frc consts  --      1.7431                 1.3470                 1.4315
 IR Inten    --     19.7061                 6.5916                 3.1204

                     67                     68                     69
                      A                      A                      A
 Frequencies --   1503.0894              1548.7518              1567.7285
 Red. masses --      2.3225                 3.7839                 2.1848
 Frc consts  --      3.0916                 5.3476                 3.1638
 IR Inten    --     64.9095                68.5883               372.0795

                     70                     71                     72
                      A                      A                      A
 Frequencies --   1651.3356              1658.9704              1689.7618
 Red. masses --      6.2497                 8.1819                 1.0656
 Frc consts  --     10.0411                13.2672                 1.7926
 IR Inten    --      0.9423                27.3685                18.4519

                     73                     74                     75
                      A                      A                      A
 Frequencies --   1710.1036              1821.0153              2978.0489
 Red. masses --      5.7025                 9.3180                 1.0856
 Frc consts  --      9.8257                18.2054                 5.6725
 IR Inten    --     22.7767               215.6719                31.4145

                     76                     77                     78
                      A                      A                      A
 Frequencies --   3015.2007              3061.6246              3117.7557
 Red. masses --      1.0387                 1.0986                 1.0985
 Frc consts  --      5.5637                 6.0674                 6.2913
 IR Inten    --     42.0013                19.2380                15.0037

                     79                     80                     81
                      A                      A                      A
 Frequencies --   3131.5581              3143.7924              3161.1851
 Red. masses --      1.0822                 1.0876                 1.0915
 Frc consts  --      6.2530                 6.3335                 6.4266
 IR Inten    --      1.9614                24.8654                51.8654

                     82                     83                     84
                      A                      A                      A
 Frequencies --   3164.4557              3283.6031              3400.7069
 Red. masses --      1.0875                 1.1119                 1.0559
 Frc consts  --      6.4164                 7.0632                 7.1950
 IR Inten    --      0.7689                 7.7551                 9.9471

                     85                     86                     87
                      A                      A                      A
 Frequencies --   3433.7285              3506.3772              3545.6136
 Red. masses --      1.0755                 1.0752                 1.0842
 Frc consts  --      7.4715                 7.7884                 8.0308
 IR Inten    --     50.1102                11.3899                 3.4139

 - Thermochemistry -
 -------------------
 Temperature   298.150 Kelvin.  Pressure   1.00000 Atm.
 Atom     1 has atomic number  6 and mass  12.00000

 Molecular mass:   259.08917 amu.
 Principal axes and moments of inertia in atomic units:
                           1         2         3
     Eigenvalues --  2473.477277193.832258641.50693
           X            0.99994  -0.00640   0.00873
           Y            0.00645   0.99997  -0.00518
           Z           -0.00869   0.00524   0.99995
 This molecule is an asymmetric top.
 Rotational symmetry number  1.
 Warning -- assumption of classical behavior for rotation
           may cause significant error
 Rotational temperatures (Kelvin)      0.03502     0.01204     0.01002
 Rotational constants (GHZ):           0.72964     0.25087     0.20885
 Zero-point vibrational energy     629135.7 (Joules/Mol)
                                  150.36705 (Kcal/Mol)
 Warning -- explicit consideration of  28 degrees of freedom as
           vibrations may cause significant error
 Vibrational temperatures:     42.65    94.82   116.01   139.74   191.40
          (Kelvin)            215.14   241.16   274.79   295.31   327.04
                              344.33   353.72   417.06   451.66   460.70
                              482.47   510.18   556.17   613.98   644.57
                              689.41   691.83   719.95   747.11   750.19
                              842.47   867.61   880.09   916.04   980.50
                             1009.15  1052.62  1068.67  1126.23  1155.95
                             1210.81  1262.04  1269.16  1294.91  1345.03
                             1359.59  1362.32  1391.26  1419.93  1440.85
                             1499.94  1530.95  1546.70  1590.85  1609.11
                             1633.71  1693.78  1710.18  1750.53  1814.57
                             1831.10  1868.00  1873.45  1945.85  1985.80
                             2030.06  2041.96  2089.51  2121.14  2123.69
                             2149.20  2162.61  2228.31  2255.61  2375.90
                             2386.89  2431.19  2460.46  2620.03  4284.75
                             4338.20  4404.99  4485.76  4505.61  4523.22
                             4548.24  4552.95  4724.37  4892.86  4940.37
                             5044.89  5101.35

 Zero-point correction=                           0.239625 (Hartree/Particle)
 Thermal correction to Energy=                    0.256218
 Thermal correction to Enthalpy=                  0.257162
 Thermal correction to Gibbs Free Energy=         0.195782
 Sum of electronic and zero-point Energies=          -1136.598417
 Sum of electronic and thermal Energies=             -1136.581824
 Sum of electronic and thermal Enthalpies=           -1136.580880
 Sum of electronic and thermal Free Energies=        -1136.642260

                     E (Thermal)             CV                S
                      KCal/Mol        Cal/Mol-Kelvin    Cal/Mol-Kelvin
 Total                  160.779             64.622            129.185
 Electronic               0.000              0.000              0.000
 Translational            0.889              2.981             42.556
 Rotational               0.889              2.981             33.397
 Vibrational            159.002             58.660             53.233
 Vibration     1          0.593              1.984              5.853
 Vibration     2          0.597              1.971              4.272
 Vibration     3          0.600              1.962              3.876
 Vibration     4          0.603              1.951              3.511
 Vibration     5          0.613              1.920              2.902
 Vibration     6          0.618              1.903              2.678
 Vibration     7          0.624              1.882              2.462
 Vibration     8          0.634              1.852              2.218
 Vibration     9          0.640              1.832              2.086
 Vibration    10          0.651              1.799              1.900
 Vibration    11          0.657              1.780              1.808
 Vibration    12          0.660              1.770              1.760
 Vibration    13          0.686              1.693              1.475
 Vibration    14          0.702              1.647              1.342
 Vibration    15          0.706              1.635              1.309
 Vibration    16          0.716              1.605              1.234
 Vibration    17          0.730              1.566              1.146
 Vibration    18          0.755              1.499              1.013
 Vibration    19          0.788              1.412              0.869
 Vibration    20          0.807              1.365              0.802
 Vibration    21          0.836              1.296              0.712
 Vibration    22          0.837              1.293              0.708
 Vibration    23          0.856              1.249              0.657
 Vibration    24          0.874              1.207              0.612
 Vibration    25          0.876              1.203              0.607
 Vibration    26          0.943              1.063              0.475
 Vibration    27          0.961              1.025              0.444
 Vibration    28          0.971              1.007              0.430

                           ! Non-Optimized Parameters !
 Normal termination of Gaussian 16 at Sat May 20 14:20:09 2023.
