 Gaussian 16, Revision A.03,
 Gaussian 16:  ES64L-G16RevA.03 25-Dec-2016

 -----------------------------
 # opt freq b3lyp/6-31g(2df,p)
 -----------------------------

 -------------------
 Title Card Required
 -------------------
 Symbolic Z-matrix:
 Charge =  0 Multiplicity = 1

 SCF Done:  E(RB3LYP) =  -1221.28377687     A.U. after   18 cycles
 SCF Done:  E(RB3LYP) =  -1221.33632590     A.U. after   14 cycles
 SCF Done:  E(RB3LYP) =  -1221.38953684     A.U. after   14 cycles
 SCF Done:  E(RB3LYP) =  -1221.40824173     A.U. after   13 cycles
 SCF Done:  E(RB3LYP) =  -1221.42151483     A.U. after   13 cycles
 SCF Done:  E(RB3LYP) =  -1221.42640949     A.U. after   13 cycles
 SCF Done:  E(RB3LYP) =  -1221.43036644     A.U. after   14 cycles
 SCF Done:  E(RB3LYP) =  -1221.43242246     A.U. after   13 cycles
 SCF Done:  E(RB3LYP) =  -1221.43335505     A.U. after   13 cycles
 SCF Done:  E(RB3LYP) =  -1221.43372537     A.U. after   13 cycles
 SCF Done:  E(RB3LYP) =  -1221.43380255     A.U. after   11 cycles
 SCF Done:  E(RB3LYP) =  -1221.43380586     A.U. after    8 cycles
 SCF Done:  E(RB3LYP) =  -1221.43380675     A.U. after    8 cycles
 SCF Done:  E(RB3LYP) =  -1221.43380685     A.U. after    7 cycles
 SCF Done:  E(RB3LYP) =  -1221.43380690     A.U. after    7 cycles
 SCF Done:  E(RB3LYP) =  -1221.43380691     A.U. after    7 cycles
 Optimization completed.
    -- Stationary point found.
 Normal termination of Gaussian 16 at Wed May 17 04:24:09 2023.

 ----------------------------------------------------------------------
 #N Geom=AllCheck Guess=TCheck SCRF=Check GenChk RB3LYP/6-31G(2df,p) Fr
 eq
 ----------------------------------------------------------------------

 Structure from the checkpoint file:  "CC1dCC2dCCdCqSrCdCC2dCd[SH]1.chk"
 -------------------
 Title Card Required
 -------------------
 Charge =  0 Multiplicity = 1

                         Standard orientation:
 ---------------------------------------------------------------------
 Center     Atomic      Atomic             Coordinates (Angstroms)
 Number     Number       Type             X           Y           Z
 ---------------------------------------------------------------------
      1          6           0       -4.300347   -1.321689   -0.263569
      2          6           0       -2.969997   -0.669308   -0.061024
      3          6           0       -1.759812   -1.231891   -0.200132
      4          6           0       -0.447941   -0.597767   -0.068404
      5          6           0        0.596334   -1.471096    0.056684
      6          6           0        2.011639   -1.286603    0.183862
      7          6           0        2.723316   -0.145865   -0.008699
      8         16           0        4.494785   -0.111109    0.131323
      9          6           0        2.189193    1.151485   -0.372956
     10          6           0        0.902189    1.552086   -0.422398
     11          6           0       -0.368999    0.886974   -0.111002
     12          6           0       -1.395404    1.777725    0.033505
     13         16           0       -2.921954    1.047122    0.473678
     14          1           0       -4.174166   -2.368628   -0.555445
     15          1           0       -4.874934   -0.819584   -1.053436
     16          1           0       -4.912265   -1.288814    0.646118
     17          1           0       -1.742418   -2.294359   -0.439194
     18          1           0        0.309053   -2.521166    0.088763
     19          1           0        2.562231   -2.192086    0.421633
     20          1           0        4.678513   -1.414682    0.408111
     21          1           0        2.933644    1.902185   -0.625771
     22          1           0        0.741518    2.590703   -0.701612
     23          1           0       -3.767504    1.565898   -0.464382
 ---------------------------------------------------------------------

 SCF Done:  E(RB3LYP) =  -1221.43380691     A.U. after    1 cycles

 The electronic state is 1-A.
 Alpha  occ. eigenvalues --  -88.95495 -88.88698 -10.22937 -10.22883 -10.21101
 Alpha  occ. eigenvalues --  -10.20863 -10.20272 -10.19429 -10.18887 -10.18851
 Alpha  occ. eigenvalues --  -10.18716 -10.18458 -10.15361  -8.01254  -7.95241
 Alpha  occ. eigenvalues --   -5.97622  -5.97458  -5.96988  -5.91692  -5.91305
 Alpha  occ. eigenvalues --   -5.90824  -0.87762  -0.84499  -0.80184  -0.79126
 Alpha  occ. eigenvalues --   -0.76352  -0.73441  -0.70783  -0.66895  -0.62897
 Alpha  occ. eigenvalues --   -0.58794  -0.56177  -0.52890  -0.50194  -0.48972
 Alpha  occ. eigenvalues --   -0.46038  -0.45333  -0.44824  -0.43187  -0.41704
 Alpha  occ. eigenvalues --   -0.40792  -0.39795  -0.38258  -0.38120  -0.37142
 Alpha  occ. eigenvalues --   -0.35273  -0.34163  -0.32843  -0.31783  -0.29245
 Alpha  occ. eigenvalues --   -0.26213  -0.23799  -0.19541  -0.16989
 Alpha virt. eigenvalues --   -0.06777  -0.01793   0.00210   0.01470   0.02181
 Alpha virt. eigenvalues --    0.04542   0.06736   0.07451   0.10625   0.11008
 Alpha virt. eigenvalues --    0.11930   0.12525   0.13783   0.14846   0.15660

 Mulliken charges:
               1
     1  C   -0.485466
     2  C    0.109967
     3  C   -0.129813
     4  C    0.125674
     5  C   -0.131785
     6  C   -0.195329
     7  C    0.182052
     8  S   -0.220612
     9  C   -0.173586
    10  C   -0.058859
    11  C    0.094318
    12  C   -0.376905
    13  S    0.052602
    14  H    0.139474
    15  H    0.136764
    16  H    0.145090
    17  H    0.102401
    18  H    0.082135
    19  H    0.082396
    20  H    0.155813
    21  H    0.102858
    22  H    0.112671
    23  H    0.148141
 Sum of Mulliken charges =  -0.00000

 Dipole moment (field-independent basis, Debye):
    X=             -3.0102    Y=             -3.5494    Z=             -0.4439  Tot=              4.6751
 Quadrupole moment (field-independent basis, Debye-Ang):
   XX=            -74.5827   YY=            -88.6858   ZZ=            -93.7312
   XY=             -0.2443   XZ=              2.8359   YZ=             -2.1888

  Exact polarizability: 325.289  -9.422 153.907   0.924  -4.311  76.593
 Approx polarizability: 569.933 -45.932 296.321  -6.407  -9.485 133.677

                      1                      2                      3
                      A                      A                      A
 Frequencies --     43.3397                65.2715               150.5399
 Red. masses --      5.0764                 4.6302                 2.8661
 Frc consts  --      0.0056                 0.0116                 0.0383
 IR Inten    --      1.3223                 0.3842                 1.0462

                      4                      5                      6
                      A                      A                      A
 Frequencies --    178.9788               184.6522               202.5310
 Red. masses --      3.2141                 1.6085                 3.0322
 Frc consts  --      0.0607                 0.0323                 0.0733
 IR Inten    --      3.5361                 0.3996                 0.8956

                      7                      8                      9
                      A                      A                      A
 Frequencies --    243.1009               254.5154               289.5162
 Red. masses --      1.0954                 4.3144                 7.4665
 Frc consts  --      0.0381                 0.1647                 0.3687
 IR Inten    --     19.5060                 2.4152                 1.1553

                     10                     11                     12
                      A                      A                      A
 Frequencies --    311.7220               341.7065               368.0583
 Red. masses --      4.8479                 4.4435                 3.5829
 Frc consts  --      0.2775                 0.3057                 0.2860
 IR Inten    --      5.9422                 4.7715                 0.8377

                     13                     14                     15
                      A                      A                      A
 Frequencies --    378.2435               394.5956               451.9551
 Red. masses --      4.8818                 4.0670                 2.9174
 Frc consts  --      0.4115                 0.3731                 0.3511
 IR Inten    --     12.0652                 0.6350                 6.3968

                     16                     17                     18
                      A                      A                      A
 Frequencies --    464.7478               540.8824               551.7381
 Red. masses --      8.8531                 9.2260                 6.2436
 Frc consts  --      1.1266                 1.5903                 1.1198
 IR Inten    --      2.4284                 3.7022                 6.4472

                     19                     20                     21
                      A                      A                      A
 Frequencies --    588.4025               628.5893               635.8775
 Red. masses --      8.5568                 3.1489                 6.1101
 Frc consts  --      1.7455                 0.7331                 1.4556
 IR Inten    --     20.1965                 1.7692                 4.4777

                     22                     23                     24
                      A                      A                      A
 Frequencies --    714.4402               724.4869               792.9609
 Red. masses --      3.4191                 4.1668                 3.0902
 Frc consts  --      1.0282                 1.2886                 1.1448
 IR Inten    --      0.3851                 4.4593                 0.8946

                     25                     26                     27
                      A                      A                      A
 Frequencies --    822.9919               830.7972               856.0966
 Red. masses --      1.4158                 1.4683                 1.6373
 Frc consts  --      0.5650                 0.5971                 0.7070
 IR Inten    --      2.5222                27.0340                 6.8929

                     28                     29                     30
                      A                      A                      A
 Frequencies --    893.8860               899.9408               935.2345
 Red. masses --      2.4730                 1.3532                 1.4356
 Frc consts  --      1.1642                 0.6457                 0.7398
 IR Inten    --      0.4999                 6.9844                13.6599

                     31                     32                     33
                      A                      A                      A
 Frequencies --    942.7917               967.0386               998.2152
 Red. masses --      1.4239                 1.2735                 1.9594
 Frc consts  --      0.7457                 0.7017                 1.1503
 IR Inten    --      5.3488                18.3180                13.6343

                     34                     35                     36
                      A                      A                      A
 Frequencies --   1018.8461              1038.3865              1063.4232
 Red. masses --      1.3028                 3.3211                 1.4527
 Frc consts  --      0.7968                 2.1099                 0.9679
 IR Inten    --      2.0983                53.5951                 0.5829

                     37                     38                     39
                      A                      A                      A
 Frequencies --   1078.4544              1143.5186              1180.4586
 Red. masses --      3.0071                 2.9370                 2.9553
 Frc consts  --      2.0606                 2.2628                 2.4263
 IR Inten    --      8.8255                 6.2491                 5.2495

                     40                     41                     42
                      A                      A                      A
 Frequencies --   1253.0611              1299.4051              1327.0126
 Red. masses --      2.1110                 1.2246                 1.6210
 Frc consts  --      1.9529                 1.2182                 1.6818
 IR Inten    --     15.4151                 2.2369                 8.7284

                     43                     44                     45
                      A                      A                      A
 Frequencies --   1390.9230              1410.6048              1420.8181
 Red. masses --      1.3442                 1.2687                 1.5262
 Frc consts  --      1.5322                 1.4874                 1.8152
 IR Inten    --      0.9244                 2.4099                 7.7024

                     46                     47                     48
                      A                      A                      A
 Frequencies --   1458.6711              1470.3157              1484.9151
 Red. masses --      1.7827                 1.0429                 1.0912
 Frc consts  --      2.2349                 1.3284                 1.4177
 IR Inten    --      2.6229                 9.2113                 4.9490

                     49                     50                     51
                      A                      A                      A
 Frequencies --   1510.8378              1581.9569              1622.8421
 Red. masses --      5.3215                 7.5779                 5.7716
 Frc consts  --      7.1568                11.1734                 8.9556
 IR Inten    --     14.2306               294.7219                27.9593

                     52                     53                     54
                      A                      A                      A
 Frequencies --   1661.6536              1686.9832              2450.2238
 Red. masses --      5.6740                 7.1613                 1.0415
 Frc consts  --      9.2304                12.0078                 3.6842
 IR Inten    --     50.6246                 1.9627               200.0250

                     55                     56                     57
                      A                      A                      A
 Frequencies --   2684.7376              3011.6076              3062.6853
 Red. masses --      1.0383                 1.0373                 1.0981
 Frc consts  --      4.4092                 5.5431                 6.0687
 IR Inten    --      1.9944                53.2760                13.9270

                     58                     59                     60
                      A                      A                      A
 Frequencies --   3104.1639              3121.9609              3135.0772
 Red. masses --      1.1001                 1.0854                 1.0869
 Frc consts  --      6.2457                 6.2329                 6.2939
 IR Inten    --     10.7701                10.0039                25.5235

                     61                     62                     63
                      A                      A                      A
 Frequencies --   3145.2762              3160.5088              3166.4778
 Red. masses --      1.0836                 1.0886                 1.0913
 Frc consts  --      6.3158                 6.4064                 6.4469
 IR Inten    --      2.6559                21.6196                 9.2390

 - Thermochemistry -
 -------------------
 Temperature   298.150 Kelvin.  Pressure   1.00000 Atm.
 Atom     1 has atomic number  6 and mass  12.00000

 Molecular mass:   206.02239 amu.
 Principal axes and moments of inertia in atomic units:
                           1         2         3
     Eigenvalues --   995.190015922.059146796.04444
           X            0.99995   0.00939   0.00450
           Y           -0.00934   0.99988  -0.01200
           Z           -0.00461   0.01195   0.99992
 This molecule is an asymmetric top.
 Rotational symmetry number  1.
 Warning -- assumption of classical behavior for rotation
           may cause significant error
 Rotational temperatures (Kelvin)      0.08703     0.01463     0.01274
 Rotational constants (GHZ):           1.81346     0.30475     0.26556
 Zero-point vibrational energy     447365.4 (Joules/Mol)
                                  106.92289 (Kcal/Mol)
 Warning -- explicit consideration of  19 degrees of freedom as
           vibrations may cause significant error
 Vibrational temperatures:     62.36    93.91   216.59   257.51   265.67
          (Kelvin)            291.40   349.77   366.19   416.55   448.50
                              491.64   529.55   544.21   567.74   650.26
                              668.67   778.21   793.83   846.58   904.40
                              914.89  1027.92  1042.38  1140.89  1184.10
                             1195.33  1231.73  1286.10  1294.81  1345.59
                             1356.47  1391.35  1436.21  1465.89  1494.01
                             1530.03  1551.66  1645.27  1698.42  1802.88
                             1869.55  1909.28  2001.23  2029.55  2044.24
                             2098.70  2115.46  2136.46  2173.76  2276.08
                             2334.91  2390.75  2427.19  3525.33  3862.74
                             4333.03  4406.52  4466.20  4491.81  4510.68
                             4525.35  4547.27  4555.86

 Zero-point correction=                           0.170392 (Hartree/Particle)
 Thermal correction to Energy=                    0.182808
 Thermal correction to Enthalpy=                  0.183752
 Thermal correction to Gibbs Free Energy=         0.131524
 Sum of electronic and zero-point Energies=          -1221.263414
 Sum of electronic and thermal Energies=             -1221.250999
 Sum of electronic and thermal Enthalpies=           -1221.250055
 Sum of electronic and thermal Free Energies=        -1221.302283

                     E (Thermal)             CV                S
                      KCal/Mol        Cal/Mol-Kelvin    Cal/Mol-Kelvin
 Total                  114.714             48.117            109.923
 Electronic               0.000              0.000              0.000
 Translational            0.889              2.981             41.873
 Rotational               0.889              2.981             32.060
 Vibrational            112.936             42.155             35.990
 Vibration     1          0.595              1.980              5.100
 Vibration     2          0.597              1.971              4.291
 Vibration     3          0.618              1.902              2.665
 Vibration     4          0.629              1.868              2.339
 Vibration     5          0.631              1.861              2.281
 Vibration     6          0.639              1.836              2.110
 Vibration     7          0.659              1.774              1.780
 Vibration     8          0.665              1.755              1.699
 Vibration     9          0.686              1.693              1.477
 Vibration    10          0.700              1.651              1.353
 Vibration    11          0.721              1.592              1.204
 Vibration    12          0.741              1.538              1.088
 Vibration    13          0.749              1.517              1.046
 Vibration    14          0.762              1.482              0.983
 Vibration    15          0.811              1.357              0.790
 Vibration    16          0.822              1.328              0.752
 Vibration    17          0.896              1.160              0.563
 Vibration    18          0.907              1.136              0.541
 Vibration    19          0.946              1.057              0.470

 Optimization completed.
    -- Stationary point found.
 Normal termination of Gaussian 16 at Wed May 17 05:32:25 2023.
