 Gaussian 16, Revision A.03,
 Gaussian 16:  ES64L-G16RevA.03 25-Dec-2016

 -----------------------------
 # opt freq b3lyp/6-31g(2df,p)
 -----------------------------

 -------------------
 Title Card Required
 -------------------
 Symbolic Z-matrix:
 Charge =  0 Multiplicity = 1

 SCF Done:  E(RB3LYP) =  -1542.19773927     A.U. after   20 cycles
 SCF Done:  E(RB3LYP) =  -1542.23833266     A.U. after   15 cycles
 SCF Done:  E(RB3LYP) =  -1542.27139845     A.U. after   16 cycles
 SCF Done:  E(RB3LYP) =  -1542.27747252     A.U. after   15 cycles
 SCF Done:  E(RB3LYP) =  -1542.27997847     A.U. after   14 cycles
 SCF Done:  E(RB3LYP) =  -1542.28104217     A.U. after   14 cycles
 SCF Done:  E(RB3LYP) =  -1542.28155636     A.U. after   14 cycles
 SCF Done:  E(RB3LYP) =  -1542.28174117     A.U. after   12 cycles
 SCF Done:  E(RB3LYP) =  -1542.28182330     A.U. after   12 cycles
 SCF Done:  E(RB3LYP) =  -1542.28185200     A.U. after   12 cycles
 SCF Done:  E(RB3LYP) =  -1542.28186561     A.U. after   11 cycles
 SCF Done:  E(RB3LYP) =  -1542.28187098     A.U. after   11 cycles
 SCF Done:  E(RB3LYP) =  -1542.28187678     A.U. after   11 cycles
 SCF Done:  E(RB3LYP) =  -1542.28188097     A.U. after   10 cycles
 SCF Done:  E(RB3LYP) =  -1542.28188347     A.U. after   10 cycles
 SCF Done:  E(RB3LYP) =  -1542.28188394     A.U. after    9 cycles
 Optimization completed.
    -- Stationary point found.
 Normal termination of Gaussian 16 at Wed May 17 05:05:11 2023.

 ----------------------------------------------------------------------
 #N Geom=AllCheck Guess=TCheck SCRF=Check GenChk RB3LYP/6-31G(2df,p) Fr
 eq
 ----------------------------------------------------------------------

 Structure from the checkpoint file:  "CC1dCCdC2CdCCqSrdS2C1dS.chk"
 -------------------
 Title Card Required
 -------------------
 Charge =  0 Multiplicity = 1

                         Standard orientation:
 ---------------------------------------------------------------------
 Center     Atomic      Atomic             Coordinates (Angstroms)
 Number     Number       Type             X           Y           Z
 ---------------------------------------------------------------------
      1          6           0       -3.504985   -0.867970   -0.250171
      2          6           0       -2.247757   -0.066195    0.016993
      3          6           0       -2.367490    1.360282    0.114297
      4          6           0       -1.373568    2.306707    0.101709
      5          6           0       -0.008059    1.924565    0.070575
      6          6           0        1.164325    2.418271   -0.443059
      7          6           0        2.211986    1.448115   -0.532961
      8          6           0        1.903229    0.181779   -0.112743
      9         16           0        2.957780   -1.192937    0.094395
     10         16           0        0.314357    0.295891    0.682268
     11          6           0       -1.058270   -0.776796    0.022667
     12         16           0       -0.664884   -2.378647   -0.219869
     13          1           0       -4.394654   -0.266188   -0.046156
     14          1           0       -3.534029   -1.769150    0.369691
     15          1           0       -3.551997   -1.203308   -1.292660
     16          1           0       -3.387930    1.731985    0.092544
     17          1           0       -1.624109    3.355949   -0.007774
     18          1           0        1.260914    3.424512   -0.830562
     19          1           0        3.192940    1.684412   -0.928588
     20          1           0        2.006338   -2.119672   -0.189039
 ---------------------------------------------------------------------

 SCF Done:  E(RB3LYP) =  -1542.28188394     A.U. after    1 cycles

 The electronic state is 1-A.
 Alpha  occ. eigenvalues --  -88.98016 -88.90053 -88.83259 -10.26552 -10.26041
 Alpha  occ. eigenvalues --  -10.24804 -10.23026 -10.22023 -10.21061 -10.20497
 Alpha  occ. eigenvalues --  -10.20434 -10.18049  -8.03811  -7.96553  -7.89750
 Alpha  occ. eigenvalues --   -6.00115  -6.00018  -5.99601  -5.93012  -5.92637
 Alpha  occ. eigenvalues --   -5.92118  -5.86179  -5.85721  -5.85463  -0.93040
 Alpha  occ. eigenvalues --   -0.85066  -0.81635  -0.78463  -0.77104  -0.72223
 Alpha  occ. eigenvalues --   -0.70549  -0.65841  -0.62035  -0.58576  -0.56237
 Alpha  occ. eigenvalues --   -0.51878  -0.49106  -0.48114  -0.47073  -0.43205
 Alpha  occ. eigenvalues --   -0.42442  -0.41511  -0.41281  -0.40140  -0.38502
 Alpha  occ. eigenvalues --   -0.38278  -0.37527  -0.35844  -0.33233  -0.32524
 Alpha  occ. eigenvalues --   -0.30167  -0.27673  -0.23845  -0.21826  -0.18318
 Alpha virt. eigenvalues --   -0.08860  -0.04584  -0.02133   0.01540   0.03363
 Alpha virt. eigenvalues --    0.03764   0.06960   0.07243   0.08138   0.10113
 Alpha virt. eigenvalues --    0.11555   0.12504   0.13363   0.14570   0.16810

 Mulliken charges:
               1
     1  C   -0.465190
     2  C    0.144987
     3  C   -0.106328
     4  C   -0.234605
     5  C    0.193822
     6  C   -0.235736
     7  C   -0.119452
     8  C    0.045261
     9  S   -0.218053
    10  S    0.267066
    11  C    0.084083
    12  S   -0.452474
    13  H    0.114583
    14  H    0.150851
    15  H    0.144254
    16  H    0.103347
    17  H    0.111337
    18  H    0.126770
    19  H    0.139712
    20  H    0.205764
 Sum of Mulliken charges =  -0.00000

 Dipole moment (field-independent basis, Debye):
    X=              0.3602    Y=              4.4404    Z=             -0.1246  Tot=              4.4568
 Quadrupole moment (field-independent basis, Debye-Ang):
   XX=            -85.1275   YY=            -89.8192   ZZ=            -94.2334
   XY=             -1.0109   XZ=             -1.4686   YZ=             -2.1459

  Exact polarizability: 216.403   1.300 205.810  -5.026  -2.594  78.992
 Approx polarizability: 391.737   2.940 479.244 -18.991   0.926 147.155

                      1                      2                      3
                      A                      A                      A
 Frequencies --     64.7789                85.5270               102.6608
 Red. masses --      6.9978                 5.2649                 4.2545
 Frc consts  --      0.0173                 0.0227                 0.0264
 IR Inten    --      1.0255                 1.2729                 1.3372

                      4                      5                      6
                      A                      A                      A
 Frequencies --    115.1223               184.8572               202.7699
 Red. masses --      1.1113                 6.4276                11.4906
 Frc consts  --      0.0087                 0.1294                 0.2784
 IR Inten    --      0.2530                 1.6744                 1.2083

                      7                      8                      9
                      A                      A                      A
 Frequencies --    247.8398               257.6651               282.0299
 Red. masses --      4.2189                 3.7235                 4.8559
 Frc consts  --      0.1527                 0.1457                 0.2276
 IR Inten    --      1.2568                 1.8572                 3.3293

                     10                     11                     12
                      A                      A                      A
 Frequencies --    329.0703               343.3196               363.5812
 Red. masses --      2.0506                 2.0808                 4.2928
 Frc consts  --      0.1308                 0.1445                 0.3343
 IR Inten    --      5.7391                11.4312                16.3385

                     13                     14                     15
                      A                      A                      A
 Frequencies --    412.2376               456.0519               489.4528
 Red. masses --      8.4927                 4.9262                 4.1437
 Frc consts  --      0.8503                 0.6037                 0.5849
 IR Inten    --      1.0869                 5.2369                11.4858

                     16                     17                     18
                      A                      A                      A
 Frequencies --    519.0408               555.5519               583.8885
 Red. masses --      5.5480                 3.4285                 9.3693
 Frc consts  --      0.8806                 0.6235                 1.8820
 IR Inten    --     10.7462                 5.0404                 2.8898

                     19                     20                     21
                      A                      A                      A
 Frequencies --    635.7907               649.8861               656.3188
 Red. masses --      5.9845                 5.8129                 6.5063
 Frc consts  --      1.4253                 1.4465                 1.6513
 IR Inten    --      2.9902                13.9762                 1.0567

                     22                     23                     24
                      A                      A                      A
 Frequencies --    725.4931               739.7627               764.2086
 Red. masses --      1.9077                 4.8546                 2.8622
 Frc consts  --      0.5916                 1.5653                 0.9849
 IR Inten    --     12.7762                 7.4103                67.1764

                     25                     26                     27
                      A                      A                      A
 Frequencies --    821.5937               909.3315               918.7369
 Red. masses --      1.3779                 1.4300                 2.5187
 Frc consts  --      0.5480                 0.6967                 1.2526
 IR Inten    --     63.0864                 3.3498                 5.9029

                     28                     29                     30
                      A                      A                      A
 Frequencies --    950.1754               972.4267               995.5783
 Red. masses --      1.2807                 1.4009                 2.1101
 Frc consts  --      0.6813                 0.7805                 1.2323
 IR Inten    --      2.1923                 2.0690                19.9005

                     31                     32                     33
                      A                      A                      A
 Frequencies --   1053.5832              1072.2479              1077.9720
 Red. masses --      1.4476                 1.8981                 2.0987
 Frc consts  --      0.9468                 1.2858                 1.4368
 IR Inten    --      1.4043                14.6365                47.4746

                     34                     35                     36
                      A                      A                      A
 Frequencies --   1169.1457              1204.7682              1242.9572
 Red. masses --      3.0267                 2.6805                 1.3622
 Frc consts  --      2.4376                 2.2923                 1.2400
 IR Inten    --      4.2462                 3.9257                 4.9636

                     37                     38                     39
                      A                      A                      A
 Frequencies --   1254.7499              1309.5905              1405.2739
 Red. masses --      1.5990                 2.2678                 1.6451
 Frc consts  --      1.4832                 2.2915                 1.9141
 IR Inten    --      2.4180                30.7227               128.5125

                     40                     41                     42
                      A                      A                      A
 Frequencies --   1411.7137              1437.8517              1470.7303
 Red. masses --      2.8450                 1.8338                 1.0475
 Frc consts  --      3.3406                 2.2338                 1.3349
 IR Inten    --    201.5720                69.2330                 8.8480

                     43                     44                     45
                      A                      A                      A
 Frequencies --   1486.9734              1510.3634              1565.3797
 Red. masses --      1.4774                 2.5586                 4.6142
 Frc consts  --      1.9247                 3.4389                 6.6617
 IR Inten    --     12.9986                52.7569                 6.9636

                     46                     47                     48
                      A                      A                      A
 Frequencies --   1602.8218              2536.7912              3030.7596
 Red. masses --      6.4377                 1.0390                 1.0363
 Frc consts  --      9.7443                 3.9394                 5.6086
 IR Inten    --     67.7626                58.7890                30.3591

                     49                     50                     51
                      A                      A                      A
 Frequencies --   3088.3349              3117.1375              3167.2283
 Red. masses --      1.0981                 1.1024                 1.0855
 Frc consts  --      6.1706                 6.3113                 6.4157
 IR Inten    --     12.4119                 9.2613                 9.1011

                     52                     53                     54
                      A                      A                      A
 Frequencies --   3192.1857              3203.8938              3218.7628
 Red. masses --      1.0918                 1.0889                 1.0954
 Frc consts  --      6.5551                 6.5858                 6.6863
 IR Inten    --      5.6158                 3.3143                 0.8021

 - Thermochemistry -
 -------------------
 Temperature   298.150 Kelvin.  Pressure   1.00000 Atm.
 Atom     1 has atomic number  6 and mass  12.00000

 Molecular mass:   211.97882 amu.
 Principal axes and moments of inertia in atomic units:
                           1         2         3
     Eigenvalues --  1917.491142958.687014682.57397
           X            0.99982   0.01886  -0.00140
           Y           -0.01887   0.99980  -0.00619
           Z            0.00128   0.00622   0.99998
 This molecule is an asymmetric top.
 Rotational symmetry number  1.
 Warning -- assumption of classical behavior for rotation
           may cause significant error
 Rotational temperatures (Kelvin)      0.04517     0.02927     0.01850
 Rotational constants (GHZ):           0.94120     0.60998     0.38542
 Zero-point vibrational energy     365853.7 (Joules/Mol)
                                   87.44114 (Kcal/Mol)
 Warning -- explicit consideration of  18 degrees of freedom as
           vibrations may cause significant error
 Vibrational temperatures:     93.20   123.05   147.71   165.64   265.97
          (Kelvin)            291.74   356.59   370.72   405.78   473.46
                              493.96   523.11   593.12   656.16   704.21
                              746.78   799.32   840.09   914.76   935.04
                              944.30  1043.82  1064.35  1099.53  1182.09
                             1308.33  1321.86  1367.09  1399.11  1432.42
                             1515.87  1542.73  1550.96  1682.14  1733.39
                             1788.34  1805.31  1884.21  2021.88  2031.14
                             2068.75  2116.05  2139.42  2173.08  2252.23
                             2306.10  3649.88  4360.59  4443.43  4484.87
                             4556.94  4592.84  4609.69  4631.08

 Zero-point correction=                           0.139346 (Hartree/Particle)
 Thermal correction to Energy=                    0.151382
 Thermal correction to Enthalpy=                  0.152326
 Thermal correction to Gibbs Free Energy=         0.100853
 Sum of electronic and zero-point Energies=          -1542.142538
 Sum of electronic and thermal Energies=             -1542.130502
 Sum of electronic and thermal Enthalpies=           -1542.129557
 Sum of electronic and thermal Free Energies=        -1542.181031

                     E (Thermal)             CV                S
                      KCal/Mol        Cal/Mol-Kelvin    Cal/Mol-Kelvin
 Total                   94.994             45.260            108.334
 Electronic               0.000              0.000              0.000
 Translational            0.889              2.981             41.958
 Rotational               0.889              2.981             31.652
 Vibrational             93.216             39.298             34.724
 Vibration     1          0.597              1.971              4.306
 Vibration     2          0.601              1.959              3.760
 Vibration     3          0.605              1.947              3.403
 Vibration     4          0.608              1.937              3.181
 Vibration     5          0.631              1.861              2.279
 Vibration     6          0.639              1.836              2.108
 Vibration     7          0.661              1.766              1.746
 Vibration     8          0.667              1.750              1.678
 Vibration     9          0.681              1.707              1.521
 Vibration    10          0.712              1.617              1.265
 Vibration    11          0.722              1.589              1.197
 Vibration    12          0.737              1.547              1.107
 Vibration    13          0.776              1.444              0.919
 Vibration    14          0.814              1.348              0.778
 Vibration    15          0.845              1.273              0.685
 Vibration    16          0.874              1.208              0.612
 Vibration    17          0.911              1.128              0.533
 Vibration    18          0.941              1.066              0.478

 Optimization completed.
    -- Stationary point found.
 Normal termination of Gaussian 16 at Wed May 17 05:57:08 2023.
