 Gaussian 16, Revision A.03,
 Gaussian 16:  ES64L-G16RevA.03 25-Dec-2016

 -----------------------------
 # opt freq b3lyp/6-31g(2df,p)
 -----------------------------

 -------------------
 Title Card Required
 -------------------
 Symbolic Z-matrix:
 Charge =  0 Multiplicity = 1

 SCF Done:  E(RB3LYP) =  -540.127689610     A.U. after   24 cycles
 SCF Done:  E(RB3LYP) =  -540.215608395     A.U. after   16 cycles
 SCF Done:  E(RB3LYP) =  -540.322707110     A.U. after   17 cycles
 SCF Done:  E(RB3LYP) =  -540.386481014     A.U. after   17 cycles
 SCF Done:  E(RB3LYP) =  -540.417865883     A.U. after   16 cycles
 SCF Done:  E(RB3LYP) =  -540.445711829     A.U. after   17 cycles
 SCF Done:  E(RB3LYP) =  -540.455837427     A.U. after   15 cycles
 SCF Done:  E(RB3LYP) =  -540.461847443     A.U. after   16 cycles
 SCF Done:  E(RB3LYP) =  -540.474316235     A.U. after   16 cycles
 SCF Done:  E(RB3LYP) =  -540.485560618     A.U. after   16 cycles
 SCF Done:  E(RB3LYP) =  -540.570113075     A.U. after   14 cycles
 SCF Done:  E(RB3LYP) =  -540.571046293     A.U. after   12 cycles
 SCF Done:  E(RB3LYP) =  -540.571360738     A.U. after   12 cycles
 SCF Done:  E(RB3LYP) =  -540.571420820     A.U. after   11 cycles
 SCF Done:  E(RB3LYP) =  -540.571451287     A.U. after   10 cycles
 SCF Done:  E(RB3LYP) =  -540.571462478     A.U. after   10 cycles
 SCF Done:  E(RB3LYP) =  -540.571464988     A.U. after    8 cycles
 SCF Done:  E(RB3LYP) =  -540.571466557     A.U. after    8 cycles
 SCF Done:  E(RB3LYP) =  -540.571467172     A.U. after    7 cycles
 Optimization completed.
    -- Stationary point found.
 Normal termination of Gaussian 16 at Wed May 17 20:20:53 2023.

 ----------------------------------------------------------------------
 #N Geom=AllCheck Guess=TCheck SCRF=Check GenChk RB3LYP/6-31G(2df,p) Fr
 eq
 ----------------------------------------------------------------------

 Structure from the checkpoint file:  "CC1dCC2dCCdCCdCdCC2dCCdC1.chk"
 -------------------
 Title Card Required
 -------------------
 Charge =  0 Multiplicity = 1

                         Standard orientation:
 ---------------------------------------------------------------------
 Center     Atomic      Atomic             Coordinates (Angstroms)
 Number     Number       Type             X           Y           Z
 ---------------------------------------------------------------------
      1          6           0        2.768563   -2.169987   -0.700903
      2          6           0        2.003125   -0.980371   -0.163311
      3          6           0        0.655768   -1.056458   -0.015231
      4          6           0       -0.164882   -0.029928    0.603973
      5          6           0       -1.278500   -0.251267    1.345073
      6          6           0       -2.307602   -1.274873    1.072417
      7          6           0       -2.999682   -1.148231   -0.081771
      8          6           0       -2.662073   -0.171617   -1.146218
      9          6           0       -2.111101    1.007060   -0.933404
     10          6           0       -1.271862    1.894583   -0.441567
     11          6           0        0.022520    1.366314    0.105826
     12          6           0        1.195293    2.035370    0.038314
     13          6           0        2.484901    1.466337    0.330686
     14          6           0        2.824222    0.156376    0.222648
     15          1           0        2.105708   -3.010314   -0.919359
     16          1           0        3.522427   -2.509747    0.020113
     17          1           0        3.306904   -1.913295   -1.621303
     18          1           0        0.161827   -1.988704   -0.284811
     19          1           0       -1.690159    0.633088    1.835468
     20          1           0       -2.615559   -2.018196    1.805277
     21          1           0       -3.812660   -1.839464   -0.294102
     22          1           0       -2.791771   -0.519978   -2.171664
     23          1           0       -1.491902    2.956889   -0.372555
     24          1           0        1.187789    3.061440   -0.326248
     25          1           0        3.288269    2.168661    0.541508
     26          1           0        3.876986   -0.080231    0.368473
 ---------------------------------------------------------------------

 SCF Done:  E(RB3LYP) =  -540.571467172     A.U. after    1 cycles

 The electronic state is 1-A.
 Alpha  occ. eigenvalues --  -10.20292 -10.19472 -10.19456 -10.19423 -10.19353
 Alpha  occ. eigenvalues --  -10.19284 -10.18958 -10.18839 -10.18812 -10.18726
 Alpha  occ. eigenvalues --  -10.18654 -10.18473 -10.18097 -10.17023  -0.85872
 Alpha  occ. eigenvalues --   -0.82230  -0.79528  -0.77315  -0.76409  -0.70583
 Alpha  occ. eigenvalues --   -0.69761  -0.66581  -0.62828  -0.59860  -0.55225
 Alpha  occ. eigenvalues --   -0.52737  -0.51832  -0.49084  -0.48197  -0.46480
 Alpha  occ. eigenvalues --   -0.45019  -0.43406  -0.42845  -0.41679  -0.41103
 Alpha  occ. eigenvalues --   -0.40398  -0.39760  -0.37580  -0.36347  -0.35081
 Alpha  occ. eigenvalues --   -0.33433  -0.32429  -0.29782  -0.28094  -0.26453
 Alpha  occ. eigenvalues --   -0.24260  -0.22522  -0.17539
 Alpha virt. eigenvalues --   -0.05607  -0.03200  -0.01685   0.01566   0.06867
 Alpha virt. eigenvalues --    0.08576   0.10037   0.10707   0.11916   0.12993
 Alpha virt. eigenvalues --    0.14365   0.14405   0.15842   0.16734   0.17430

 Mulliken charges:
               1
     1  C   -0.477834
     2  C    0.285335
     3  C   -0.235510
     4  C    0.120303
     5  C   -0.212188
     6  C   -0.145063
     7  C   -0.039446
     8  C   -0.269217
     9  C    0.257922
    10  C   -0.335711
    11  C    0.225286
    12  C   -0.193923
    13  C   -0.101033
    14  C   -0.144107
    15  H    0.122412
    16  H    0.126874
    17  H    0.129901
    18  H    0.094472
    19  H    0.101040
    20  H    0.096711
    21  H    0.095666
    22  H    0.112251
    23  H    0.113985
    24  H    0.091894
    25  H    0.092886
    26  H    0.087096
 Sum of Mulliken charges =   0.00000

 Dipole moment (field-independent basis, Debye):
    X=              0.5951    Y=             -0.4001    Z=             -0.3978  Tot=              0.8201
 Quadrupole moment (field-independent basis, Debye-Ang):
   XX=            -76.0469   YY=            -74.8263   ZZ=            -82.8798
   XY=              2.3702   XZ=             -0.2098   YZ=              1.1822

  Exact polarizability: 208.865  18.331 155.354   1.647  -0.223  98.858
 Approx polarizability: 357.622  46.524 274.967   0.107  -3.446 181.471

                      1                      2                      3
                      A                      A                      A
 Frequencies --     75.0526                85.3011               139.5531
 Red. masses --      3.8372                 3.9662                 2.0704
 Frc consts  --      0.0127                 0.0170                 0.0238
 IR Inten    --      0.0415                 0.3202                 0.3856

                      4                      5                      6
                      A                      A                      A
 Frequencies --    159.4718               184.0858               226.8306
 Red. masses --      1.7194                 2.2111                 3.3014
 Frc consts  --      0.0258                 0.0441                 0.1001
 IR Inten    --      1.3342                 0.7986                 0.9599

                      7                      8                      9
                      A                      A                      A
 Frequencies --    286.0767               311.4055               337.7206
 Red. masses --      3.6456                 2.9496                 3.7630
 Frc consts  --      0.1758                 0.1685                 0.2529
 IR Inten    --      1.3804                 2.0770                 5.8245

                     10                     11                     12
                      A                      A                      A
 Frequencies --    359.0153               386.7546               401.3944
 Red. masses --      3.4598                 3.7971                 3.3186
 Frc consts  --      0.2627                 0.3346                 0.3150
 IR Inten    --      1.3923                 3.3021                 5.1730

                     13                     14                     15
                      A                      A                      A
 Frequencies --    417.8957               473.9629               483.6094
 Red. masses --      4.2688                 3.6712                 2.9128
 Frc consts  --      0.4392                 0.4859                 0.4014
 IR Inten    --      0.6882                 6.5080                 1.3820

                     16                     17                     18
                      A                      A                      A
 Frequencies --    546.6252               573.2942               619.6803
 Red. masses --      3.6896                 5.6442                 2.7407
 Frc consts  --      0.6495                 1.0930                 0.6201
 IR Inten    --      3.3094                28.7320                 4.7499

                     19                     20                     21
                      A                      A                      A
 Frequencies --    637.3109               656.3164               717.2453
 Red. masses --      3.5745                 2.8242                 2.4662
 Frc consts  --      0.8554                 0.7168                 0.7475
 IR Inten    --      8.1965                11.8404                20.5759

                     22                     23                     24
                      A                      A                      A
 Frequencies --    742.4730               785.5220               802.2575
 Red. masses --      2.6850                 1.7388                 2.6639
 Frc consts  --      0.8721                 0.6321                 1.0102
 IR Inten    --     12.9204                 9.3886                14.7365

                     25                     26                     27
                      A                      A                      A
 Frequencies --    809.6712               837.3472               873.5733
 Red. masses --      2.0131                 2.5720                 1.5467
 Frc consts  --      0.7775                 1.0625                 0.6954
 IR Inten    --     30.4938                16.8337                10.0416

                     28                     29                     30
                      A                      A                      A
 Frequencies --    877.4035               901.0267               911.4690
 Red. masses --      2.1916                 1.5827                 2.3363
 Frc consts  --      0.9941                 0.7571                 1.1436
 IR Inten    --     30.6982                 0.7971                 3.1771

                     31                     32                     33
                      A                      A                      A
 Frequencies --    920.4798               923.6610               989.7158
 Red. masses --      1.7850                 2.2730                 1.3986
 Frc consts  --      0.8911                 1.1426                 0.8072
 IR Inten    --      8.5343                12.9272                 9.2618

                     34                     35                     36
                      A                      A                      A
 Frequencies --    994.9141              1012.8880              1034.2396
 Red. masses --      1.2870                 2.5903                 2.2111
 Frc consts  --      0.7506                 1.5658                 1.3935
 IR Inten    --      0.4410                 3.4133                 1.7776

                     37                     38                     39
                      A                      A                      A
 Frequencies --   1060.6982              1066.2848              1103.5095
 Red. masses --      1.9916                 1.5403                 3.3825
 Frc consts  --      1.3202                 1.0318                 2.4268
 IR Inten    --      3.1265                 2.5874                 5.5534

                     40                     41                     42
                      A                      A                      A
 Frequencies --   1115.4351              1156.2642              1200.4708
 Red. masses --      1.6683                 2.2486                 1.0880
 Frc consts  --      1.2230                 1.7712                 0.9238
 IR Inten    --      1.5780                 3.7188                 0.5437

                     43                     44                     45
                      A                      A                      A
 Frequencies --   1212.8339              1260.7651              1274.0186
 Red. masses --      1.8022                 1.1622                 1.2978
 Frc consts  --      1.5619                 1.0884                 1.2411
 IR Inten    --      0.3464                 0.3946                 1.6577

                     46                     47                     48
                      A                      A                      A
 Frequencies --   1325.9408              1369.4258              1384.1252
 Red. masses --      1.3252                 1.6244                 1.5102
 Frc consts  --      1.3727                 1.7948                 1.7047
 IR Inten    --      2.1713                 1.3800                 2.1832

                     49                     50                     51
                      A                      A                      A
 Frequencies --   1403.6677              1411.5486              1419.4108
 Red. masses --      1.9405                 1.2547                 2.3576
 Frc consts  --      2.2526                 1.4730                 2.7985
 IR Inten    --      5.3995                 1.3909                 2.1762

                     52                     53                     54
                      A                      A                      A
 Frequencies --   1471.1699              1480.8595              1493.7364
 Red. masses --      1.5890                 1.0926                 1.1344
 Frc consts  --      2.0263                 1.4117                 1.4913
 IR Inten    --      6.0292                 4.3304                 3.9867

                     55                     56                     57
                      A                      A                      A
 Frequencies --   1569.3417              1596.4704              1619.3250
 Red. masses --      7.7271                 6.1032                 7.8897
 Frc consts  --     11.2125                 9.1649                12.1892
 IR Inten    --      5.6929                11.6976                11.3883

                     58                     59                     60
                      A                      A                      A
 Frequencies --   1643.4032              1680.1342              1951.1326
 Red. masses --      7.2549                 5.6175                10.4577
 Frc consts  --     11.5444                 9.3429                23.4563
 IR Inten    --      6.1160                 6.7042                14.9305

                     61                     62                     63
                      A                      A                      A
 Frequencies --   3020.9383              3069.7427              3083.5424
 Red. masses --      1.0383                 1.0992                 1.0839
 Frc consts  --      5.5827                 6.1028                 6.0719
 IR Inten    --     37.2491                17.9883                 7.9887

                     64                     65                     66
                      A                      A                      A
 Frequencies --   3104.7614              3118.3358              3128.4612
 Red. masses --      1.0848                 1.0986                 1.0830
 Frc consts  --      6.1611                 6.2941                 6.2451
 IR Inten    --     13.4359                 9.8274                 3.3879

                     67                     68                     69
                      A                      A                      A
 Frequencies --   3130.3539              3135.1016              3135.9532
 Red. masses --      1.0834                 1.0872                 1.0874
 Frc consts  --      6.2551                 6.2959                 6.3003
 IR Inten    --     11.7606                14.6194                17.7441

                     70                     71                     72
                      A                      A                      A
 Frequencies --   3150.0886              3155.0965              3157.2437
 Red. masses --      1.0893                 1.0943                 1.0925
 Frc consts  --      6.3688                 6.4181                 6.4162
 IR Inten    --     12.7949                85.8733                29.5438

 - Thermochemistry -
 -------------------
 Temperature   298.150 Kelvin.  Pressure   1.00000 Atm.
 Atom     1 has atomic number  6 and mass  12.00000

 Molecular mass:   180.09390 amu.
 Principal axes and moments of inertia in atomic units:
                           1         2         3
     Eigenvalues --  1492.953543086.767373919.39012
           X            0.99995  -0.00702  -0.00677
           Y            0.00716   0.99978   0.01992
           Z            0.00663  -0.01997   0.99978
 This molecule is an asymmetric top.
 Rotational symmetry number  1.
 Warning -- assumption of classical behavior for rotation
           may cause significant error
 Rotational temperatures (Kelvin)      0.05802     0.02806     0.02210
 Rotational constants (GHZ):           1.20884     0.58467     0.46046
 Zero-point vibrational energy     551208.3 (Joules/Mol)
                                  131.74195 (Kcal/Mol)
 Warning -- explicit consideration of  18 degrees of freedom as
           vibrations may cause significant error
 Vibrational temperatures:    107.98   122.73   200.79   229.44   264.86
          (Kelvin)            326.36   411.60   448.04   485.90   516.54
                              556.45   577.52   601.26   681.93   695.81
                              786.47   824.84   891.58   916.95   944.29
                             1031.96  1068.25  1130.19  1154.27  1164.94
                             1204.76  1256.88  1262.39  1296.38  1311.40
                             1324.37  1328.94  1423.98  1431.46  1457.32
                             1488.04  1526.11  1534.15  1587.70  1604.86
                             1663.61  1727.21  1745.00  1813.96  1833.03
                             1907.73  1970.30  1991.45  2019.56  2030.90
                             2042.22  2116.69  2130.63  2149.15  2257.93
                             2296.96  2329.85  2364.49  2417.34  2807.24
                             4346.46  4416.68  4436.53  4467.06  4486.59
                             4501.16  4503.88  4510.71  4511.94  4532.27
                             4539.48  4542.57

 Zero-point correction=                           0.209944 (Hartree/Particle)
 Thermal correction to Energy=                    0.221717
 Thermal correction to Enthalpy=                  0.222661
 Thermal correction to Gibbs Free Energy=         0.172777
 Sum of electronic and zero-point Energies=           -540.361523
 Sum of electronic and thermal Energies=              -540.349750
 Sum of electronic and thermal Enthalpies=            -540.348806
 Sum of electronic and thermal Free Energies=         -540.398690

                     E (Thermal)             CV                S
                      KCal/Mol        Cal/Mol-Kelvin    Cal/Mol-Kelvin
 Total                  139.130             47.819            104.991
 Electronic               0.000              0.000              0.000
 Translational            0.889              2.981             41.472
 Rotational               0.889              2.981             31.269
 Vibrational            137.352             41.858             32.250
 Vibration     1          0.599              1.966              4.016
 Vibration     2          0.601              1.959              3.765
 Vibration     3          0.615              1.914              2.810
 Vibration     4          0.621              1.892              2.556
 Vibration     5          0.631              1.862              2.287
 Vibration     6          0.650              1.800              1.904
 Vibration     7          0.684              1.700              1.497
 Vibration     8          0.700              1.652              1.355
 Vibration     9          0.718              1.600              1.223
 Vibration    10          0.734              1.557              1.126
 Vibration    11          0.755              1.498              1.013
 Vibration    12          0.767              1.467              0.958
 Vibration    13          0.781              1.431              0.899
 Vibration    14          0.831              1.308              0.727
 Vibration    15          0.840              1.286              0.700
 Vibration    16          0.902              1.147              0.551
 Vibration    17          0.930              1.089              0.498
 Vibration    18          0.980              0.990              0.417

                           ! Non-Optimized Parameters !
 Normal termination of Gaussian 16 at Wed May 17 21:57:00 2023.
