 Gaussian 16, Revision A.03,
 Gaussian 16:  ES64L-G16RevA.03 25-Dec-2016

 -----------------------------
 # opt freq b3lyp/6-31g(2df,p)
 -----------------------------

 -------------------
 Title Card Required
 -------------------
 Symbolic Z-matrix:
 Charge =  0 Multiplicity = 1

 SCF Done:  E(RB3LYP) =  -663.971506884     A.U. after   15 cycles
 SCF Done:  E(RB3LYP) =  -663.984945944     A.U. after   13 cycles
 SCF Done:  E(RB3LYP) =  -663.986993910     A.U. after   13 cycles
 SCF Done:  E(RB3LYP) =  -663.986721423     A.U. after   13 cycles
 SCF Done:  E(RB3LYP) =  -663.987467480     A.U. after   12 cycles
 SCF Done:  E(RB3LYP) =  -663.987565224     A.U. after   11 cycles
 SCF Done:  E(RB3LYP) =  -663.987622341     A.U. after   10 cycles
 SCF Done:  E(RB3LYP) =  -663.987652090     A.U. after   10 cycles
 SCF Done:  E(RB3LYP) =  -663.987677263     A.U. after   10 cycles
 SCF Done:  E(RB3LYP) =  -663.987694294     A.U. after   10 cycles
 SCF Done:  E(RB3LYP) =  -663.987698951     A.U. after    9 cycles
 SCF Done:  E(RB3LYP) =  -663.987700174     A.U. after    8 cycles
 Optimization completed.
    -- Stationary point found.
 Normal termination of Gaussian 16 at Thu May 18 12:18:14 2023.

 ----------------------------------------------------------------------
 #N Geom=AllCheck Guess=TCheck SCRF=Check GenChk RB3LYP/6-31G(2df,p) Fr
 eq
 ----------------------------------------------------------------------

 Structure from the checkpoint file:  "CC1dCqC2dCNdCCdNCdC2rCqdOrNdC1.chk"
 -------------------
 Title Card Required
 -------------------
 Charge =  0 Multiplicity = 1

                         Standard orientation:
 ---------------------------------------------------------------------
 Center     Atomic      Atomic             Coordinates (Angstroms)
 Number     Number       Type             X           Y           Z
 ---------------------------------------------------------------------
      1          6           0       -1.452776    2.500446   -0.596803
      2          6           0       -1.882966    1.112093   -0.266823
      3          6           0       -1.168731    0.029124    0.106101
      4          6           0        0.264617   -0.127663    0.353873
      5          6           0        0.937975    0.847962    1.013886
      6          7           0        2.242412    0.773331    1.499049
      7          6           0        3.231603    0.539830    0.738653
      8          6           0        3.210505    0.429339   -0.759170
      9          7           0        2.698872   -0.510739   -1.439736
     10          6           0        1.982137   -1.541211   -0.809382
     11          6           0        0.888521   -1.407889   -0.046826
     12          6           0       -2.193936   -1.099054    0.245857
     13          8           0       -1.992530   -2.233661    0.577813
     14          7           0       -3.512185   -0.580921   -0.070498
     15          6           0       -3.303789    0.652309   -0.354239
     16          1           0       -0.383771    2.540341   -0.821614
     17          1           0       -1.643236    3.190603    0.235817
     18          1           0       -2.009830    2.886440   -1.458002
     19          1           0        0.395391    1.709763    1.391234
     20          1           0        4.220290    0.471072    1.202757
     21          1           0        3.752478    1.213536   -1.297169
     22          1           0        2.300957   -2.532776   -1.120556
     23          1           0        0.343212   -2.304956    0.223988
     24          1           0       -4.117911    1.311841   -0.651413
 ---------------------------------------------------------------------

 SCF Done:  E(RB3LYP) =  -663.987700174     A.U. after    2 cycles

 The electronic state is 1-A.
 Alpha  occ. eigenvalues --  -19.15431 -14.35697 -14.35319 -14.33024 -10.29696
 Alpha  occ. eigenvalues --  -10.25630 -10.25293 -10.25226 -10.23245 -10.22255
 Alpha  occ. eigenvalues --  -10.22110 -10.21642 -10.21542 -10.20744 -10.19244
 Alpha  occ. eigenvalues --   -1.06816  -0.96911  -0.95350  -0.93547  -0.84138
 Alpha  occ. eigenvalues --   -0.79820  -0.75150  -0.73370  -0.70455  -0.66618
 Alpha  occ. eigenvalues --   -0.62468  -0.61325  -0.56067  -0.54976  -0.51992
 Alpha  occ. eigenvalues --   -0.50755  -0.49601  -0.48917  -0.46792  -0.46013
 Alpha  occ. eigenvalues --   -0.45351  -0.44343  -0.43484  -0.42575  -0.41024
 Alpha  occ. eigenvalues --   -0.40373  -0.37837  -0.37572  -0.34412  -0.33585
 Alpha  occ. eigenvalues --   -0.32801  -0.30400  -0.29771  -0.28731  -0.26240
 Alpha  occ. eigenvalues --   -0.24858  -0.21552
 Alpha virt. eigenvalues --   -0.10877  -0.06764  -0.01591  -0.00352   0.04531
 Alpha virt. eigenvalues --    0.05195   0.08246   0.09015   0.12200   0.12342
 Alpha virt. eigenvalues --    0.12973   0.13614   0.13820   0.14726   0.16772

 Mulliken charges:
               1
     1  C   -0.514728
     2  C    0.148081
     3  C    0.048737
     4  C    0.081530
     5  C   -0.099588
     6  N   -0.160267
     7  C   -0.032964
     8  C   -0.042527
     9  N   -0.165737
    10  C   -0.022169
    11  C   -0.204907
    12  C    0.356823
    13  O   -0.275617
    14  N   -0.279110
    15  C   -0.027800
    16  H    0.143037
    17  H    0.145321
    18  H    0.135606
    19  H    0.112969
    20  H    0.129952
    21  H    0.124919
    22  H    0.120456
    23  H    0.146296
    24  H    0.131686
 Sum of Mulliken charges =  -0.00000

 Dipole moment (field-independent basis, Debye):
    X=              2.2974    Y=              4.3393    Z=             -0.8321  Tot=              4.9799
 Quadrupole moment (field-independent basis, Debye-Ang):
   XX=            -82.8968   YY=            -82.3543   ZZ=            -90.1240
   XY=            -10.8525   XZ=              2.4959   YZ=             -0.4611

  Exact polarizability: 193.079  -0.982 136.426   5.871   0.507  91.314
 Approx polarizability: 294.382   6.194 248.346  12.411   3.838 167.753

                      1                      2                      3
                      A                      A                      A
 Frequencies --     39.8863                67.7677               100.5524
 Red. masses --      4.8633                 5.6099                 5.3158
 Frc consts  --      0.0046                 0.0152                 0.0317
 IR Inten    --      1.9790                 0.1827                 0.5917

                      4                      5                      6
                      A                      A                      A
 Frequencies --    129.1227               174.0306               183.5886
 Red. masses --      3.6210                 1.4697                 4.6249
 Frc consts  --      0.0356                 0.0262                 0.0918
 IR Inten    --      3.4069                 1.2029                 1.7138

                      7                      8                      9
                      A                      A                      A
 Frequencies --    214.4161               246.2901               274.4032
 Red. masses --      3.9428                 3.1849                 4.5502
 Frc consts  --      0.1068                 0.1138                 0.2019
 IR Inten    --      8.6709                11.3878                 1.9415

                     10                     11                     12
                      A                      A                      A
 Frequencies --    291.6536               298.2275               350.3237
 Red. masses --      3.7571                 4.0047                 3.5546
 Frc consts  --      0.1883                 0.2099                 0.2570
 IR Inten    --      1.3663                 3.5039                 2.0437

                     13                     14                     15
                      A                      A                      A
 Frequencies --    361.2710               410.0777               438.9530
 Red. masses --      4.6363                 4.0887                 4.7584
 Frc consts  --      0.3565                 0.4051                 0.5402
 IR Inten    --      3.2832                 8.1386                 3.5185

                     16                     17                     18
                      A                      A                      A
 Frequencies --    509.7394               547.8923               601.4893
 Red. masses --      3.6224                 4.5164                 3.4294
 Frc consts  --      0.5546                 0.7988                 0.7310
 IR Inten    --      0.6952                 2.2198                 7.7843

                     19                     20                     21
                      A                      A                      A
 Frequencies --    631.1456               653.4570               721.2903
 Red. masses --      7.2096                 3.5016                 2.9068
 Frc consts  --      1.6921                 0.8810                 0.8910
 IR Inten    --      2.7363                 2.1001                 7.9515

                     22                     23                     24
                      A                      A                      A
 Frequencies --    728.4732               762.3949               790.5130
 Red. masses --      5.0549                 7.8737                 3.8438
 Frc consts  --      1.5805                 2.6964                 1.4152
 IR Inten    --      9.4201                 0.7613                16.5759

                     25                     26                     27
                      A                      A                      A
 Frequencies --    822.0870               835.8401               869.3661
 Red. masses --      2.2285                 2.5928                 4.1925
 Frc consts  --      0.8873                 1.0673                 1.8669
 IR Inten    --     45.8812                 1.4541                 8.9851

                     28                     29                     30
                      A                      A                      A
 Frequencies --    881.1859               916.9463               929.1641
 Red. masses --      2.6827                 1.6945                 2.9136
 Frc consts  --      1.2273                 0.8394                 1.4821
 IR Inten    --     26.7936                29.5600                98.6785

                     31                     32                     33
                      A                      A                      A
 Frequencies --    963.4674               976.7790               982.9421
 Red. masses --      2.1058                 1.4625                 1.3246
 Frc consts  --      1.1517                 0.8221                 0.7540
 IR Inten    --     18.4253                 4.1924                11.6989

                     34                     35                     36
                      A                      A                      A
 Frequencies --   1010.0629              1014.5762              1034.8032
 Red. masses --      2.4388                 3.2784                 3.6605
 Frc consts  --      1.4660                 1.9883                 2.3094
 IR Inten    --     10.9344                15.7801                 3.0528

                     37                     38                     39
                      A                      A                      A
 Frequencies --   1041.9043              1059.4282              1119.6806
 Red. masses --      2.8189                 1.6252                 3.0837
 Frc consts  --      1.8030                 1.0747                 2.2778
 IR Inten    --     19.4060                 4.0116                43.5846

                     40                     41                     42
                      A                      A                      A
 Frequencies --   1216.6949              1252.4541              1298.7112
 Red. masses --      2.6858                 1.1212                 3.5008
 Frc consts  --      2.3426                 1.0363                 3.4789
 IR Inten    --     17.2382                 9.1069                13.1772

                     43                     44                     45
                      A                      A                      A
 Frequencies --   1340.4952              1354.9835              1385.2450
 Red. masses --      1.7337                 1.2671                 1.2640
 Frc consts  --      1.8355                 1.3707                 1.4291
 IR Inten    --     46.6723                 3.7467                 8.2970

                     46                     47                     48
                      A                      A                      A
 Frequencies --   1393.3464              1412.2888              1429.1918
 Red. masses --      1.3102                 1.3032                 1.6331
 Frc consts  --      1.4987                 1.5315                 1.9654
 IR Inten    --      8.7229                 9.9695                 2.2835

                     49                     50                     51
                      A                      A                      A
 Frequencies --   1477.1085              1484.5927              1585.0344
 Red. masses --      1.0617                 1.0547                 8.7105
 Frc consts  --      1.3649                 1.3696                12.8935
 IR Inten    --      4.9228                 9.8937               145.1590

                     52                     53                     54
                      A                      A                      A
 Frequencies --   1614.2961              1671.2199              1699.1338
 Red. masses --      7.2170                 6.9879                 8.5277
 Frc consts  --     11.0808                11.4991                14.5056
 IR Inten    --     17.3905                10.1802                 4.1920

                     55                     56                     57
                      A                      A                      A
 Frequencies --   1720.0603              1743.9114              1846.0139
 Red. masses --      9.4399                11.6765                12.9066
 Frc consts  --     16.4553                20.9224                25.9138
 IR Inten    --     23.8908                38.9865               161.1416

                     58                     59                     60
                      A                      A                      A
 Frequencies --   3018.1211              3070.2495              3072.8482
 Red. masses --      1.0406                 1.0947                 1.0849
 Frc consts  --      5.5851                 6.0800                 6.0358
 IR Inten    --     13.2845                12.2146                11.3749

                     61                     62                     63
                      A                      A                      A
 Frequencies --   3085.4158              3115.9950              3151.1320
 Red. masses --      1.0875                 1.0997                 1.0936
 Frc consts  --      6.0995                 6.2910                 6.3982
 IR Inten    --     43.8734                 5.0063                31.4034

                     64                     65                     66
                      A                      A                      A
 Frequencies --   3162.9353              3172.4141              3201.9167
 Red. masses --      1.0864                 1.0878                 1.0905
 Frc consts  --      6.4037                 6.4501                 6.5869
 IR Inten    --      6.9534                 7.8188                 8.6908

 - Thermochemistry -
 -------------------
 Temperature   298.150 Kelvin.  Pressure   1.00000 Atm.
 Atom     1 has atomic number  6 and mass  12.00000

 Molecular mass:   199.07456 amu.
 Principal axes and moments of inertia in atomic units:
                           1         2         3
     Eigenvalues --  1549.040364210.411834915.02749
           X            0.99975  -0.02215   0.00421
           Y            0.02220   0.99965  -0.01448
           Z           -0.00389   0.01457   0.99989
 This molecule is an asymmetric top.
 Rotational symmetry number  1.
 Warning -- assumption of classical behavior for rotation
           may cause significant error
 Rotational temperatures (Kelvin)      0.05591     0.02057     0.01762
 Rotational constants (GHZ):           1.16507     0.42864     0.36719
 Zero-point vibrational energy     472291.7 (Joules/Mol)
                                  112.88042 (Kcal/Mol)
 Warning -- explicit consideration of  18 degrees of freedom as
           vibrations may cause significant error
 Vibrational temperatures:     57.39    97.50   144.67   185.78   250.39
          (Kelvin)            264.14   308.50   354.36   394.80   419.62
                              429.08   504.04   519.79   590.01   631.56
                              733.40   788.29   865.41   908.08   940.18
                             1037.78  1048.11  1096.92  1137.37  1182.80
                             1202.59  1250.82  1267.83  1319.28  1336.86
                             1386.21  1405.37  1414.23  1453.26  1459.75
                             1488.85  1499.07  1524.28  1610.97  1750.55
                             1802.00  1868.56  1928.67  1949.52  1993.06
                             2004.71  2031.97  2056.29  2125.23  2136.00
                             2280.51  2322.61  2404.51  2444.67  2474.78
                             2509.10  2656.00  4342.40  4417.40  4421.14
                             4439.23  4483.22  4533.78  4550.76  4564.40
                             4606.84

 Zero-point correction=                           0.179886 (Hartree/Particle)
 Thermal correction to Energy=                    0.192598
 Thermal correction to Enthalpy=                  0.193542
 Thermal correction to Gibbs Free Energy=         0.140406
 Sum of electronic and zero-point Energies=           -663.807814
 Sum of electronic and thermal Energies=              -663.795102
 Sum of electronic and thermal Enthalpies=            -663.794158
 Sum of electronic and thermal Free Energies=         -663.847294

                     E (Thermal)             CV                S
                      KCal/Mol        Cal/Mol-Kelvin    Cal/Mol-Kelvin
 Total                  120.857             48.425            111.835
 Electronic               0.000              0.000              0.000
 Translational            0.889              2.981             41.770
 Rotational               0.889              2.981             31.839
 Vibrational            119.080             42.463             38.225
 Vibration     1          0.594              1.981              5.265
 Vibration     2          0.598              1.970              4.217
 Vibration     3          0.604              1.949              3.444
 Vibration     4          0.612              1.924              2.959
 Vibration     5          0.627              1.874              2.392
 Vibration     6          0.631              1.862              2.292
 Vibration     7          0.644              1.819              2.006
 Vibration     8          0.661              1.769              1.757
 Vibration     9          0.677              1.721              1.568
 Vibration    10          0.687              1.689              1.464
 Vibration    11          0.691              1.677              1.427
 Vibration    12          0.727              1.575              1.165
 Vibration    13          0.735              1.552              1.117
 Vibration    14          0.774              1.448              0.926
 Vibration    15          0.799              1.385              0.830
 Vibration    16          0.865              1.228              0.634
 Vibration    17          0.903              1.144              0.549
 Vibration    18          0.960              1.029              0.447

                           ! Non-Optimized Parameters !
 Normal termination of Gaussian 16 at Thu May 18 13:54:50 2023.
