 Gaussian 16, Revision A.03,
 Gaussian 16:  ES64L-G16RevA.03 25-Dec-2016

 -----------------------------
 # opt freq b3lyp/6-31g(2df,p)
 -----------------------------

 -------------------
 Title Card Required
 -------------------
 Symbolic Z-matrix:
 Charge =  0 Multiplicity = 1

 SCF Done:  E(RB3LYP) =  -422.700787153     A.U. after   17 cycles
 SCF Done:  E(RB3LYP) =  -422.751346173     A.U. after   15 cycles
 SCF Done:  E(RB3LYP) =  -422.776630761     A.U. after   15 cycles
 SCF Done:  E(RB3LYP) =  -422.778635449     A.U. after   13 cycles
 SCF Done:  E(RB3LYP) =  -422.778426105     A.U. after   14 cycles
 SCF Done:  E(RB3LYP) =  -422.778984506     A.U. after   14 cycles
 SCF Done:  E(RB3LYP) =  -422.779734174     A.U. after   13 cycles
 SCF Done:  E(RB3LYP) =  -422.779786975     A.U. after   10 cycles
 SCF Done:  E(RB3LYP) =  -422.779797014     A.U. after   10 cycles
 SCF Done:  E(RB3LYP) =  -422.779797904     A.U. after    9 cycles
 SCF Done:  E(RB3LYP) =  -422.779798544     A.U. after    8 cycles
 SCF Done:  E(RB3LYP) =  -422.779798714     A.U. after    8 cycles
 SCF Done:  E(RB3LYP) =  -422.779798875     A.U. after    8 cycles
 SCF Done:  E(RB3LYP) =  -422.779799022     A.U. after    9 cycles
 SCF Done:  E(RB3LYP) =  -422.779799150     A.U. after    9 cycles
 SCF Done:  E(RB3LYP) =  -422.779799233     A.U. after    8 cycles
 SCF Done:  E(RB3LYP) =  -422.779799298     A.U. after    8 cycles
 SCF Done:  E(RB3LYP) =  -422.779799360     A.U. after    8 cycles
 SCF Done:  E(RB3LYP) =  -422.779799412     A.U. after    8 cycles
 Optimization completed.
    -- Stationary point found.
 Normal termination of Gaussian 16 at Thu May 18 11:34:02 2023.

 ----------------------------------------------------------------------
 #N Geom=AllCheck Guess=TCheck SCRF=Check GenChk RB3LYP/6-31G(2df,p) Fr
 eq
 ----------------------------------------------------------------------

 Structure from the checkpoint file:  "CC1dC2CqdCCdOrCC2dC1.chk"
 -------------------
 Title Card Required
 -------------------
 Charge =  0 Multiplicity = 1

                         Standard orientation:
 ---------------------------------------------------------------------
 Center     Atomic      Atomic             Coordinates (Angstroms)
 Number     Number       Type             X           Y           Z
 ---------------------------------------------------------------------
      1          6           0       -3.028135   -1.694534   -0.000721
      2          6           0       -2.186185   -0.481888    0.000510
      3          6           0       -0.865679   -0.157161    0.000988
      4          6           0        0.564888    0.087941    0.000300
      5          6           0        1.688346   -0.663135    0.000501
      6          6           0        3.022030   -0.079993   -0.000284
      7          8           0        4.056037   -0.718405   -0.000199
      8          6           0        0.305771    1.642908   -0.000572
      9          6           0       -1.189878    1.308051    0.000337
     10          6           0       -2.513826    1.107017    0.000169
     11          1           0       -2.423420   -2.604941   -0.000132
     12          1           0       -3.687759   -1.706238   -0.879791
     13          1           0       -3.690086   -1.706573    0.876574
     14          1           0        1.624364   -1.747186    0.001305
     15          1           0        3.042669    1.034037   -0.001076
     16          1           0        0.660427    2.180618   -0.886060
     17          1           0        0.661276    2.181629    0.883952
     18          1           0       -3.419757    1.700667   -0.000555
 ---------------------------------------------------------------------

 SCF Done:  E(RB3LYP) =  -422.779799412     A.U. after    1 cycles

 The electronic state is 1-A.
 Alpha  occ. eigenvalues --  -19.11788 -10.25441 -10.24321 -10.23326 -10.23058
 Alpha  occ. eigenvalues --  -10.20556 -10.20435 -10.20411 -10.18947 -10.18943
 Alpha  occ. eigenvalues --   -1.02245  -0.91128  -0.81657  -0.76389  -0.73266
 Alpha  occ. eigenvalues --   -0.67117  -0.61014  -0.57917  -0.54504  -0.50146
 Alpha  occ. eigenvalues --   -0.47135  -0.46419  -0.45665  -0.44385  -0.43445
 Alpha  occ. eigenvalues --   -0.41494  -0.39537  -0.39208  -0.38096  -0.34877
 Alpha  occ. eigenvalues --   -0.34260  -0.28316  -0.26306  -0.23937  -0.18676
 Alpha virt. eigenvalues --   -0.09744  -0.01497   0.06502   0.06621   0.08265
 Alpha virt. eigenvalues --    0.10500   0.10942   0.11259   0.12799   0.14315
 Alpha virt. eigenvalues --    0.15670   0.16218   0.17006   0.19220   0.19361

 Mulliken charges:
               1
     1  C   -0.508000
     2  C    0.004774
     3  C    0.304511
     4  C    0.145400
     5  C   -0.309805
     6  C    0.156672
     7  O   -0.297724
     8  C   -0.470081
     9  C    0.320390
    10  C   -0.373270
    11  H    0.140507
    12  H    0.147442
    13  H    0.147416
    14  H    0.104500
    15  H    0.059843
    16  H    0.157124
    17  H    0.157140
    18  H    0.113162
 Sum of Mulliken charges =  -0.00000

 Dipole moment (field-independent basis, Debye):
    X=             -4.6481    Y=              0.9982    Z=             -0.0021  Tot=              4.7541
 Quadrupole moment (field-independent basis, Debye-Ang):
   XX=            -70.2116   YY=            -53.3103   ZZ=            -58.0159
   XY=              8.3676   XZ=              0.0057   YZ=             -0.0019

  Exact polarizability: 208.437  -1.232  93.202   0.004  -0.008  49.877
 Approx polarizability: 408.499 -17.260 139.737   0.005  -0.011  80.433

                      1                      2                      3
                      A                      A                      A
 Frequencies --     36.2710                85.5447               109.0574
 Red. masses --      3.2176                 3.9720                 4.9282
 Frc consts  --      0.0025                 0.0171                 0.0345
 IR Inten    --      2.1462                 5.8022                 3.1166

                      4                      5                      6
                      A                      A                      A
 Frequencies --    169.4319               186.6928               224.6680
 Red. masses --      2.0266                 1.3335                 3.4517
 Frc consts  --      0.0343                 0.0274                 0.1027
 IR Inten    --      2.9913                 0.6903                 3.3632

                      7                      8                      9
                      A                      A                      A
 Frequencies --    257.7994               361.1077               391.7185
 Red. masses --      2.3396                 2.1720                 4.3266
 Frc consts  --      0.0916                 0.1669                 0.3912
 IR Inten    --      0.0591                 2.4296                 4.3503

                     10                     11                     12
                      A                      A                      A
 Frequencies --    432.3165               433.4991               545.8259
 Red. masses --      6.1301                 2.5386                 4.1054
 Frc consts  --      0.6750                 0.2811                 0.7206
 IR Inten    --     35.9122                 1.8622                27.4485

                     13                     14                     15
                      A                      A                      A
 Frequencies --    574.5554               584.7121               680.7357
 Red. masses --      3.8455                 3.2550                 1.3248
 Frc consts  --      0.7479                 0.6557                 0.3617
 IR Inten    --      7.7213                 0.9082                26.4071

                     16                     17                     18
                      A                      A                      A
 Frequencies --    734.7354               774.0998               849.9329
 Red. masses --      3.5038                 3.1338                 5.8704
 Frc consts  --      1.1144                 1.1064                 2.4986
 IR Inten    --      3.8357                 2.8399                 0.3007

                     19                     20                     21
                      A                      A                      A
 Frequencies --    878.7197               923.6815               925.7960
 Red. masses --      1.3085                 5.2327                 2.6135
 Frc consts  --      0.5953                 2.6304                 1.3198
 IR Inten    --     14.0564                 6.7389                 0.0407

                     22                     23                     24
                      A                      A                      A
 Frequencies --   1010.8377              1020.0845              1092.0055
 Red. masses --      1.5743                 1.7514                 2.2153
 Frc consts  --      0.9478                 1.0737                 1.5565
 IR Inten    --      4.9679                 0.2046                42.9178

                     25                     26                     27
                      A                      A                      A
 Frequencies --   1107.4813              1124.5299              1153.7151
 Red. masses --      1.1269                 4.8800                 2.8490
 Frc consts  --      0.8143                 3.6359                 2.2343
 IR Inten    --      0.2545                92.7160               192.2959

                     28                     29                     30
                      A                      A                      A
 Frequencies --   1155.1155              1189.6258              1222.6445
 Red. masses --      2.1596                 1.7203                 1.7675
 Frc consts  --      1.6978                 1.4344                 1.5567
 IR Inten    --     85.4164                11.5808                16.5786

                     31                     32                     33
                      A                      A                      A
 Frequencies --   1278.7806              1390.6301              1417.5516
 Red. masses --      1.5612                 1.2568                 1.0964
 Frc consts  --      1.5041                 1.4319                 1.2981
 IR Inten    --     15.6496                14.6835                 5.8557

                     34                     35                     36
                      A                      A                      A
 Frequencies --   1426.6878              1455.5266              1465.4965
 Red. masses --      1.2589                 1.0458                 1.0739
 Frc consts  --      1.5097                 1.3054                 1.3589
 IR Inten    --      7.6490                 6.1017                43.9656

                     37                     38                     39
                      A                      A                      A
 Frequencies --   1636.2827              1647.2676              1685.3881
 Red. masses --      7.8321                 8.9554                 8.8493
 Frc consts  --     12.3551                14.3173                14.8101
 IR Inten    --    125.4815               408.6586               247.7936

                     40                     41                     42
                      A                      A                      A
 Frequencies --   1766.5371              2861.0200              3003.1556
 Red. masses --      9.5624                 1.0803                 1.0382
 Frc consts  --     17.5817                 5.2101                 5.5170
 IR Inten    --    289.5687               114.0234                21.8482

                     43                     44                     45
                      A                      A                      A
 Frequencies --   3045.5281              3046.2149              3093.6037
 Red. masses --      1.0967                 1.0580                 1.1045
 Frc consts  --      5.9930                 5.7846                 6.2281
 IR Inten    --      8.9479                 4.6698                 2.8013

                     46                     47                     48
                      A                      A                      A
 Frequencies --   3118.0312              3179.3819              3196.7116
 Red. masses --      1.0984                 1.0899                 1.0988
 Frc consts  --      6.2916                 6.4911                 6.6159
 IR Inten    --      8.1741                 2.8045                22.4438

 - Thermochemistry -
 -------------------
 Temperature   298.150 Kelvin.  Pressure   1.00000 Atm.
 Atom     1 has atomic number  6 and mass  12.00000

 Molecular mass:   132.05751 amu.
 Principal axes and moments of inertia in atomic units:
                           1         2         3
     Eigenvalues --   538.955772650.741723167.31940
           X            0.99963   0.02736   0.00001
           Y           -0.02736   0.99963  -0.00002
           Z           -0.00001   0.00001   1.00000
 This molecule is an asymmetric top.
 Rotational symmetry number  1.
 Warning -- assumption of classical behavior for rotation
           may cause significant error
 Rotational temperatures (Kelvin)      0.16071     0.03268     0.02735
 Rotational constants (GHZ):           3.34859     0.68084     0.56980
 Zero-point vibrational energy     358585.0 (Joules/Mol)
                                   85.70388 (Kcal/Mol)
 Warning -- explicit consideration of  14 degrees of freedom as
           vibrations may cause significant error
 Vibrational temperatures:     52.19   123.08   156.91   243.77   268.61
          (Kelvin)            323.25   370.92   519.55   563.60   622.01
                              623.71   785.32   826.66   841.27   979.43
                             1057.12  1113.76  1222.86  1264.28  1328.97
                             1332.01  1454.37  1467.67  1571.15  1593.42
                             1617.95  1659.94  1661.95  1711.61  1759.11
                             1839.88  2000.81  2039.54  2052.69  2094.18
                             2108.52  2354.25  2370.05  2424.90  2541.65
                             4116.37  4320.87  4381.84  4382.82  4451.01
                             4486.15  4574.42  4599.36

 Zero-point correction=                           0.136578 (Hartree/Particle)
 Thermal correction to Energy=                    0.146502
 Thermal correction to Enthalpy=                  0.147447
 Thermal correction to Gibbs Free Energy=         0.100578
 Sum of electronic and zero-point Energies=           -422.643222
 Sum of electronic and thermal Energies=              -422.633297
 Sum of electronic and thermal Enthalpies=            -422.632353
 Sum of electronic and thermal Free Energies=         -422.679222

                     E (Thermal)             CV                S
                      KCal/Mol        Cal/Mol-Kelvin    Cal/Mol-Kelvin
 Total                   91.932             35.846             98.644
 Electronic               0.000              0.000              0.000
 Translational            0.889              2.981             40.547
 Rotational               0.889              2.981             29.894
 Vibrational             90.154             29.885             28.203
 Vibration     1          0.594              1.982              5.453
 Vibration     2          0.601              1.959              3.759
 Vibration     3          0.606              1.942              3.286
 Vibration     4          0.625              1.880              2.442
 Vibration     5          0.632              1.858              2.260
 Vibration     6          0.649              1.803              1.921
 Vibration     7          0.667              1.750              1.677
 Vibration     8          0.735              1.552              1.117
 Vibration     9          0.759              1.488              0.994
 Vibration    10          0.793              1.400              0.851
 Vibration    11          0.794              1.397              0.847
 Vibration    12          0.901              1.149              0.553
 Vibration    13          0.931              1.086              0.496
 Vibration    14          0.942              1.064              0.477

                           ! Non-Optimized Parameters !
 Normal termination of Gaussian 16 at Thu May 18 12:00:01 2023.
