 Gaussian 16, Revision A.03,
 Gaussian 16:  ES64L-G16RevA.03 25-Dec-2016

 -----------------------------
 # opt freq b3lyp/6-31g(2df,p)
 -----------------------------

 -------------------
 Title Card Required
 -------------------
 Symbolic Z-matrix:
 Charge =  0 Multiplicity = 1

 SCF Done:  E(RB3LYP) =  -615.036283799     A.U. after   27 cycles
 SCF Done:  E(RB3LYP) =  -614.990774187     A.U. after   25 cycles
 SCF Done:  E(RB3LYP) =  -615.193005309     A.U. after   18 cycles
 SCF Done:  E(RB3LYP) =  -615.310275478     A.U. after   16 cycles
 SCF Done:  E(RB3LYP) =  -615.420133473     A.U. after   17 cycles
 SCF Done:  E(RB3LYP) =  -615.499348182     A.U. after   17 cycles
 SCF Done:  E(RB3LYP) =  -615.562991676     A.U. after   17 cycles
 SCF Done:  E(RB3LYP) =  -615.582033986     A.U. after   15 cycles
 SCF Done:  E(RB3LYP) =  -615.587903265     A.U. after   14 cycles
 SCF Done:  E(RB3LYP) =  -615.602424801     A.U. after   15 cycles
 SCF Done:  E(RB3LYP) =  -615.774318447     A.U. after   14 cycles
 SCF Done:  E(RB3LYP) =  -615.774587801     A.U. after   12 cycles
 SCF Done:  E(RB3LYP) =  -615.774716750     A.U. after   12 cycles
 SCF Done:  E(RB3LYP) =  -615.774739231     A.U. after   12 cycles
 SCF Done:  E(RB3LYP) =  -615.774747668     A.U. after   10 cycles
 SCF Done:  E(RB3LYP) =  -615.774751236     A.U. after   10 cycles
 SCF Done:  E(RB3LYP) =  -615.774753487     A.U. after   10 cycles
 SCF Done:  E(RB3LYP) =  -615.774754557     A.U. after    8 cycles
 SCF Done:  E(RB3LYP) =  -615.774754951     A.U. after    8 cycles
 Optimization completed.
    -- Stationary point found.
 Normal termination of Gaussian 16 at Thu May 18 23:12:32 2023.

 ----------------------------------------------------------------------
 #N Geom=AllCheck Guess=TCheck SCRF=Check GenChk RB3LYP/6-31G(2df,p) Fr
 eq
 ----------------------------------------------------------------------

 Structure from the checkpoint file:  "CC1dCC2dCCdCCqdOrCdCC2dCCdC1.chk"
 -------------------
 Title Card Required
 -------------------
 Charge =  0 Multiplicity = 1

                         Standard orientation:
 ---------------------------------------------------------------------
 Center     Atomic      Atomic             Coordinates (Angstroms)
 Number     Number       Type             X           Y           Z
 ---------------------------------------------------------------------
      1          6           0       -3.364077    1.981073   -0.642357
      2          6           0       -2.493858    0.824909   -0.199718
      3          6           0       -1.216880    1.084881    0.250812
      4          6           0       -0.280188    0.169164    0.776285
      5          6           0        0.805827    0.527424    1.584071
      6          6           0        1.751628    1.382969    0.960258
      7          6           0        3.003967    0.822492    0.751681
      8          6           0        2.884444    0.296672   -0.651496
      9          8           0        2.993651    0.870492   -1.705762
     10          6           0        2.392409   -1.145305   -0.532328
     11          6           0        1.197459   -1.701542   -0.174206
     12          6           0       -0.130118   -1.210205    0.228118
     13          6           0       -1.199032   -2.051971    0.048636
     14          6           0       -2.575457   -1.703495    0.003029
     15          6           0       -3.120419   -0.456950   -0.167621
     16          1           0       -2.861557    2.941013   -0.505334
     17          1           0       -4.307226    2.006835   -0.084317
     18          1           0       -3.625251    1.890091   -1.703595
     19          1           0       -0.946508    2.137276    0.350931
     20          1           0        1.243697   -0.283699    2.161532
     21          1           0        1.379776    2.083931    0.216270
     22          1           0        3.320271    0.057837    1.462695
     23          1           0        3.164832   -1.862504   -0.810434
     24          1           0        1.189846   -2.786869   -0.283514
     25          1           0       -0.976772   -3.092281   -0.185395
     26          1           0       -3.268617   -2.538727   -0.049463
     27          1           0       -4.195929   -0.437528   -0.334271
 ---------------------------------------------------------------------

 SCF Done:  E(RB3LYP) =  -615.774754951     A.U. after    1 cycles

 The electronic state is 1-A.
 Alpha  occ. eigenvalues --  -19.11924 -10.27139 -10.22210 -10.21684 -10.21569
 Alpha  occ. eigenvalues --  -10.21520 -10.21293 -10.21038 -10.21023 -10.20759
 Alpha  occ. eigenvalues --  -10.20593 -10.19977 -10.19832 -10.19473 -10.17723
 Alpha  occ. eigenvalues --   -1.03097  -0.87819  -0.83887  -0.81602  -0.78790
 Alpha  occ. eigenvalues --   -0.77561  -0.72038  -0.70361  -0.66218  -0.64431
 Alpha  occ. eigenvalues --   -0.60156  -0.56750  -0.54402  -0.53417  -0.52147
 Alpha  occ. eigenvalues --   -0.48556  -0.47370  -0.45966  -0.44953  -0.43583
 Alpha  occ. eigenvalues --   -0.43089  -0.42278  -0.41485  -0.40754  -0.39626
 Alpha  occ. eigenvalues --   -0.39061  -0.38057  -0.37229  -0.36144  -0.35715
 Alpha  occ. eigenvalues --   -0.34253  -0.30952  -0.29962  -0.27588  -0.23909
 Alpha  occ. eigenvalues --   -0.22851  -0.17607
 Alpha virt. eigenvalues --   -0.08036  -0.06891  -0.03432   0.00278   0.03141
 Alpha virt. eigenvalues --    0.07425   0.07853   0.09407   0.09802   0.11459
 Alpha virt. eigenvalues --    0.11784   0.12907   0.14712   0.15149   0.16628

 Mulliken charges:
               1
     1  C   -0.482365
     2  C    0.247393
     3  C   -0.177350
     4  C    0.109755
     5  C   -0.222269
     6  C   -0.055772
     7  C   -0.278675
     8  C    0.325534
     9  O   -0.309072
    10  C   -0.207508
    11  C   -0.079463
    12  C    0.150673
    13  C   -0.141837
    14  C   -0.105039
    15  C   -0.127089
    16  H    0.129238
    17  H    0.132662
    18  H    0.140166
    19  H    0.101022
    20  H    0.110363
    21  H    0.125289
    22  H    0.100268
    23  H    0.115054
    24  H    0.094476
    25  H    0.104507
    26  H    0.101685
    27  H    0.098356
 Sum of Mulliken charges =  -0.00000

 Dipole moment (field-independent basis, Debye):
    X=             -4.2174    Y=             -1.9912    Z=              1.3916  Tot=              4.8670
 Quadrupole moment (field-independent basis, Debye-Ang):
   XX=            -86.6999   YY=            -80.0230   ZZ=            -93.8881
   XY=             -7.6355   XZ=              7.2906   YZ=              1.3461

  Exact polarizability: 279.874  12.491 159.423  13.881   4.922 101.523
 Approx polarizability: 622.731  70.428 297.635  44.226  19.884 197.766

                      1                      2                      3
                      A                      A                      A
 Frequencies --     57.6110                59.2500               102.9360
 Red. masses --      7.8212                 3.9065                 1.1797
 Frc consts  --      0.0153                 0.0081                 0.0074
 IR Inten    --      1.1118                 2.1795                 0.1682

                      4                      5                      6
                      A                      A                      A
 Frequencies --    132.6938               158.5626               198.5916
 Red. masses --      3.5060                 3.5425                 3.4869
 Frc consts  --      0.0364                 0.0525                 0.0810
 IR Inten    --      0.5000                 1.4926                 3.1738

                      7                      8                      9
                      A                      A                      A
 Frequencies --    249.1551               252.8659               291.1339
 Red. masses --      3.3362                 5.7572                 3.4115
 Frc consts  --      0.1220                 0.2169                 0.1704
 IR Inten    --      1.6499                 4.9423                 1.0271

                     10                     11                     12
                      A                      A                      A
 Frequencies --    311.8724               357.6602               381.8586
 Red. masses --      4.4259                 3.4401                 3.1007
 Frc consts  --      0.2536                 0.2593                 0.2664
 IR Inten    --      1.2680                 0.6653                14.7154

                     13                     14                     15
                      A                      A                      A
 Frequencies --    400.5869               422.3243               445.1830
 Red. masses --      4.6160                 3.3076                 3.7130
 Frc consts  --      0.4364                 0.3476                 0.4336
 IR Inten    --      6.6845                 3.3925                 2.6606

                     16                     17                     18
                      A                      A                      A
 Frequencies --    489.1942               515.7273               569.5304
 Red. masses --      3.9339                 3.6944                 3.9130
 Frc consts  --      0.5547                 0.5789                 0.7478
 IR Inten    --     59.9587                 5.0352                 1.5285

                     19                     20                     21
                      A                      A                      A
 Frequencies --    581.6271               600.8588               678.4005
 Red. masses --      4.7016                 2.7685                 4.0778
 Frc consts  --      0.9371                 0.5889                 1.1057
 IR Inten    --      0.1590                 6.8396                 3.7567

                     22                     23                     24
                      A                      A                      A
 Frequencies --    683.7180               710.0138               757.8188
 Red. masses --      4.1672                 4.3068                 1.9400
 Frc consts  --      1.1477                 1.2792                 0.6564
 IR Inten    --      1.4866                 0.6847                11.4824

                     25                     26                     27
                      A                      A                      A
 Frequencies --    777.2038               796.5553               827.2001
 Red. masses --      4.2128                 1.6917                 3.0059
 Frc consts  --      1.4993                 0.6324                 1.2118
 IR Inten    --     20.3283                28.8942                 6.0591

                     28                     29                     30
                      A                      A                      A
 Frequencies --    837.2717               882.1198               909.8007
 Red. masses --      1.8259                 3.3728                 1.6098
 Frc consts  --      0.7542                 1.5463                 0.7851
 IR Inten    --    356.5092                 3.4470                11.4163

                     31                     32                     33
                      A                      A                      A
 Frequencies --    927.8068               930.4888               943.2931
 Red. masses --      2.3166                 1.6590                 1.4962
 Frc consts  --      1.1750                 0.8463                 0.7844
 IR Inten    --      8.4408                15.6268                12.9096

                     34                     35                     36
                      A                      A                      A
 Frequencies --    980.5437               996.2939              1002.2407
 Red. masses --      1.4641                 2.4430                 1.3425
 Frc consts  --      0.8294                 1.4287                 0.7945
 IR Inten    --      2.8118                22.8186                 1.4522

                     37                     38                     39
                      A                      A                      A
 Frequencies --   1028.7117              1063.2603              1066.6733
 Red. masses --      1.8339                 1.5559                 1.4033
 Frc consts  --      1.1434                 1.0364                 0.9407
 IR Inten    --     13.6752                12.0873                98.1214

                     40                     41                     42
                      A                      A                      A
 Frequencies --   1086.6240              1114.0089              1148.8700
 Red. masses --      2.2514                 3.5992                 2.5265
 Frc consts  --      1.5663                 2.6317                 1.9648
 IR Inten    --      1.2154                12.2892                 4.4766

                     43                     44                     45
                      A                      A                      A
 Frequencies --   1191.8371              1230.6729              1268.7530
 Red. masses --      2.6311                 1.3393                 1.4258
 Frc consts  --      2.2020                 1.1952                 1.3523
 IR Inten    --     49.9854                13.5098                19.8914

                     46                     47                     48
                      A                      A                      A
 Frequencies --   1276.2659              1285.6965              1299.0460
 Red. masses --      1.3278                 1.2906                 1.8938
 Frc consts  --      1.2743                 1.2569                 1.8830
 IR Inten    --     18.7980                 1.2870                 4.2206

                     49                     50                     51
                      A                      A                      A
 Frequencies --   1334.4427              1374.8918              1409.7184
 Red. masses --      1.5321                 1.7372                 1.7606
 Frc consts  --      1.6074                 1.9348                 2.0614
 IR Inten    --      3.6943                24.9724                37.1823

                     52                     53                     54
                      A                      A                      A
 Frequencies --   1413.3526              1421.9680              1447.8937
 Red. masses --      1.3339                 1.5312                 2.8053
 Frc consts  --      1.5699                 1.8242                 3.4650
 IR Inten    --      5.5220                 4.9583                44.5898

                     55                     56                     57
                      A                      A                      A
 Frequencies --   1471.8109              1480.5732              1485.4956
 Red. masses --      2.5358                 1.0684                 1.2645
 Frc consts  --      3.2365                 1.3799                 1.6441
 IR Inten    --     13.0571                 8.2605                 7.8953

                     58                     59                     60
                      A                      A                      A
 Frequencies --   1506.7909              1514.1481              1573.0688
 Red. masses --      2.6820                 1.8347                 5.9613
 Frc consts  --      3.5876                 2.4782                 8.6913
 IR Inten    --     39.1357                 3.0078                 6.5898

                     61                     62                     63
                      A                      A                      A
 Frequencies --   1600.3060              1646.2457              1789.4333
 Red. masses --      6.0294                 4.5784                11.8004
 Frc consts  --      9.0976                 7.3106                22.2627
 IR Inten    --     34.1006                 5.1430               405.9646

                     64                     65                     66
                      A                      A                      A
 Frequencies --   3025.7492              3076.3912              3101.7634
 Red. masses --      1.0384                 1.0994                 1.0822
 Frc consts  --      5.6013                 6.1302                 6.1345
 IR Inten    --     34.3548                15.6553                 5.6470

                     67                     68                     69
                      A                      A                      A
 Frequencies --   3104.3925              3109.5816              3123.4982
 Red. masses --      1.0851                 1.0872                 1.0976
 Frc consts  --      6.1615                 6.1937                 6.3091
 IR Inten    --     10.1040                 6.8884                11.7802

                     70                     71                     72
                      A                      A                      A
 Frequencies --   3128.1263              3132.7024              3135.5150
 Red. masses --      1.0875                 1.0854                 1.0865
 Frc consts  --      6.2695                 6.2762                 6.2937
 IR Inten    --      5.4076                20.6833                 7.3109

                     73                     74                     75
                      A                      A                      A
 Frequencies --   3139.6255              3153.9915              3168.4538
 Red. masses --      1.0860                 1.0865                 1.0913
 Frc consts  --      6.3072                 6.3682                 6.4550
 IR Inten    --     17.6913                14.5438                27.8158

 - Thermochemistry -
 -------------------
 Temperature   298.150 Kelvin.  Pressure   1.00000 Atm.
 Atom     1 has atomic number  6 and mass  12.00000

 Molecular mass:   196.08882 amu.
 Principal axes and moments of inertia in atomic units:
                           1         2         3
     Eigenvalues --  1622.854364108.869074812.93351
           X            0.99950  -0.02733   0.01604
           Y            0.02744   0.99960  -0.00690
           Z           -0.01585   0.00734   0.99985
 This molecule is an asymmetric top.
 Rotational symmetry number  1.
 Warning -- assumption of classical behavior for rotation
           may cause significant error
 Rotational temperatures (Kelvin)      0.05337     0.02108     0.01800
 Rotational constants (GHZ):           1.11208     0.43923     0.37498
 Zero-point vibrational energy     563144.1 (Joules/Mol)
                                  134.59467 (Kcal/Mol)
 Warning -- explicit consideration of  20 degrees of freedom as
           vibrations may cause significant error
 Vibrational temperatures:     82.89    85.25   148.10   190.92   228.14
          (Kelvin)            285.73   358.48   363.82   418.88   448.71
                              514.59   549.41   576.36   607.63   640.52
                              703.84   742.02   819.43   836.83   864.50
                              976.07   983.72  1021.55  1090.33  1118.22
                             1146.07  1190.16  1204.65  1269.17  1309.00
                             1334.91  1338.77  1357.19  1410.78  1433.44
                             1442.00  1480.09  1529.79  1534.70  1563.41
                             1602.81  1652.97  1714.79  1770.66  1825.45
                             1836.26  1849.83  1869.04  1919.97  1978.16
                             2028.27  2033.50  2045.89  2083.20  2117.61
                             2130.21  2137.30  2167.94  2178.52  2263.30
                             2302.48  2368.58  2574.60  4353.38  4426.24
                             4462.75  4466.53  4473.99  4494.02  4500.68
                             4507.26  4511.31  4517.22  4537.89  4558.70

 Zero-point correction=                           0.214490 (Hartree/Particle)
 Thermal correction to Energy=                    0.227290
 Thermal correction to Enthalpy=                  0.228234
 Thermal correction to Gibbs Free Energy=         0.175416
 Sum of electronic and zero-point Energies=           -615.560265
 Sum of electronic and thermal Energies=              -615.547465
 Sum of electronic and thermal Enthalpies=            -615.546521
 Sum of electronic and thermal Free Energies=         -615.599339

                     E (Thermal)             CV                S
                      KCal/Mol        Cal/Mol-Kelvin    Cal/Mol-Kelvin
 Total                  142.627             50.736            111.164
 Electronic               0.000              0.000              0.000
 Translational            0.889              2.981             41.725
 Rotational               0.889              2.981             31.840
 Vibrational            140.849             44.775             37.599
 Vibration     1          0.596              1.974              4.537
 Vibration     2          0.597              1.974              4.482
 Vibration     3          0.605              1.947              3.398
 Vibration     4          0.613              1.921              2.907
 Vibration     5          0.621              1.893              2.567
 Vibration     6          0.637              1.842              2.146
 Vibration     7          0.662              1.764              1.737
 Vibration     8          0.664              1.758              1.711
 Vibration     9          0.687              1.690              1.467
 Vibration    10          0.700              1.651              1.352
 Vibration    11          0.733              1.560              1.132
 Vibration    12          0.751              1.509              1.032
 Vibration    13          0.766              1.469              0.960
 Vibration    14          0.785              1.422              0.884
 Vibration    15          0.805              1.372              0.810
 Vibration    16          0.845              1.274              0.686
 Vibration    17          0.871              1.215              0.620
 Vibration    18          0.926              1.097              0.505
 Vibration    19          0.938              1.071              0.482
 Vibration    20          0.959              1.030              0.448

                           ! Non-Optimized Parameters !
 Normal termination of Gaussian 16 at Fri May 19 01:11:07 2023.
