 Gaussian 16, Revision A.03,
 Gaussian 16:  ES64L-G16RevA.03 25-Dec-2016

 -----------------------------
 # opt freq b3lyp/6-31g(2df,p)
 -----------------------------

 -------------------
 Title Card Required
 -------------------
 Symbolic Z-matrix:
 Charge =  0 Multiplicity = 1

 SCF Done:  E(RB3LYP) =  -665.422213880     A.U. after   24 cycles
 SCF Done:  E(RB3LYP) =  -665.625547730     A.U. after   18 cycles
 SCF Done:  E(RB3LYP) =  -665.765725591     A.U. after   21 cycles
 SCF Done:  E(RB3LYP) =  -665.732282901     A.U. after   24 cycles
 SCF Done:  E(RB3LYP) =  -665.815649855     A.U. after   17 cycles
 SCF Done:  E(RB3LYP) =  -665.988766970     A.U. after   18 cycles
 SCF Done:  E(RB3LYP) =  -666.105337822     A.U. after   17 cycles
 SCF Done:  E(RB3LYP) =  -666.172958060     A.U. after   16 cycles
 SCF Done:  E(RB3LYP) =  -666.223486508     A.U. after   16 cycles
 SCF Done:  E(RB3LYP) =  -666.238686621     A.U. after   15 cycles
 SCF Done:  E(RB3LYP) =  -666.335173081     A.U. after    9 cycles
 SCF Done:  E(RB3LYP) =  -666.335177062     A.U. after    8 cycles
 SCF Done:  E(RB3LYP) =  -666.335179997     A.U. after    8 cycles
 SCF Done:  E(RB3LYP) =  -666.335181196     A.U. after    8 cycles
 SCF Done:  E(RB3LYP) =  -666.335182429     A.U. after    9 cycles
 SCF Done:  E(RB3LYP) =  -666.335184629     A.U. after   10 cycles
 SCF Done:  E(RB3LYP) =  -666.335185380     A.U. after    9 cycles
 SCF Done:  E(RB3LYP) =  -666.335185464     A.U. after    7 cycles
 SCF Done:  E(RB3LYP) =  -666.335185495     A.U. after    6 cycles
 Optimization completed.
    -- Stationary point found.
 Normal termination of Gaussian 16 at Thu May 18 20:55:46 2023.

 ----------------------------------------------------------------------
 #N Geom=AllCheck Guess=TCheck SCRF=Check GenChk RB3LYP/6-31G(2df,p) Fr
 eq
 ----------------------------------------------------------------------

 Structure from the checkpoint file:  "CC1dC2NdCNdC2CdCNqCdOrCC1C.chk"
 -------------------
 Title Card Required
 -------------------
 Charge =  0 Multiplicity = 1

                         Standard orientation:
 ---------------------------------------------------------------------
 Center     Atomic      Atomic             Coordinates (Angstroms)
 Number     Number       Type             X           Y           Z
 ---------------------------------------------------------------------
      1          6           0       -2.686159    2.796325    0.816736
      2          6           0       -2.313685    0.438442   -0.101588
      3          6           0       -1.538714   -0.801110   -0.034434
      4          7           0       -2.060337   -1.975478   -0.295389
      5          6           0       -1.006945   -2.873952   -0.077924
      6          7           0        0.141241   -2.378714    0.269634
      7          6           0       -0.099161   -0.992145    0.283669
      8          6           0        0.873596   -0.069291    0.419922
      9          6           0        2.264486   -0.437205    0.769534
     10          7           0        3.364553    0.027059   -0.162057
     11          6           0        3.243361    0.969218   -1.209911
     12          8           0        2.307143    1.687900   -1.387315
     13          6           0        3.148612    0.585043    1.417208
     14          6           0       -2.012227    1.463767    0.719153
     15          6           0       -3.470776    0.415485   -1.070586
     16          1           0       -3.117145    2.938579    1.815958
     17          1           0       -3.478093    2.939217    0.080423
     18          1           0       -1.951443    3.600293    0.683416
     19          1           0       -1.175237   -3.937928   -0.201860
     20          1           0        0.657719    0.984822    0.318856
     21          1           0        2.367182   -1.513928    0.919529
     22          1           0        4.147078    0.957060   -1.847829
     23          1           0        3.956660    0.020337    1.915606
     24          1           0        4.099153   -0.656536   -0.305998
     25          1           0       -1.202745    1.318163    1.428842
     26          1           0       -4.108868    1.294917   -0.981616
     27          1           0       -4.073751   -0.480239   -0.899025
     28          1           0       -3.110183    0.354509   -2.103769
 ---------------------------------------------------------------------

 SCF Done:  E(RB3LYP) =  -666.335185495     A.U. after    1 cycles

 The electronic state is 1-A.
 Alpha  occ. eigenvalues --  -19.16853 -14.43139 -14.31601 -14.31463 -10.32907
 Alpha  occ. eigenvalues --  -10.24938 -10.23739 -10.23203 -10.22310 -10.21582
 Alpha  occ. eigenvalues --  -10.20071 -10.19738 -10.18749 -10.18485 -10.17712
 Alpha  occ. eigenvalues --   -1.09207  -0.99375  -0.99026  -0.86180  -0.82272
 Alpha  occ. eigenvalues --   -0.79953  -0.75774  -0.73129  -0.68382  -0.65783
 Alpha  occ. eigenvalues --   -0.62466  -0.59904  -0.58710  -0.57649  -0.53559
 Alpha  occ. eigenvalues --   -0.52590  -0.50056  -0.48616  -0.46703  -0.45248
 Alpha  occ. eigenvalues --   -0.44486  -0.43576  -0.42257  -0.41874  -0.41091
 Alpha  occ. eigenvalues --   -0.39975  -0.39595  -0.38476  -0.36966  -0.36609
 Alpha  occ. eigenvalues --   -0.35028  -0.33681  -0.30941  -0.29680  -0.28413
 Alpha  occ. eigenvalues --   -0.27057  -0.26074  -0.23219  -0.20073
 Alpha virt. eigenvalues --   -0.09040  -0.04429   0.00606   0.03267   0.05797
 Alpha virt. eigenvalues --    0.07415   0.09129   0.10088   0.11192   0.12133
 Alpha virt. eigenvalues --    0.13080   0.14438   0.14929   0.15318   0.16298

 Mulliken charges:
               1
     1  C   -0.447415
     2  C    0.177563
     3  C    0.234249
     4  N   -0.335069
     5  C    0.038769
     6  N   -0.321636
     7  C    0.262937
     8  C   -0.164171
     9  C   -0.063167
    10  N   -0.193498
    11  C    0.192732
    12  O   -0.230970
    13  C   -0.346432
    14  C   -0.116556
    15  C   -0.483894
    16  H    0.136165
    17  H    0.128208
    18  H    0.141255
    19  H    0.121403
    20  H    0.149484
    21  H    0.123111
    22  H    0.117201
    23  H    0.094075
    24  H    0.278168
    25  H    0.099678
    26  H    0.118378
    27  H    0.157457
    28  H    0.131973
 Sum of Mulliken charges =  -0.00000

 Dipole moment (field-independent basis, Debye):
    X=              2.2955    Y=             -0.4061    Z=             -1.4949  Tot=              2.7693
 Quadrupole moment (field-independent basis, Debye-Ang):
   XX=            -71.0854   YY=            -91.7437   ZZ=            -89.1200
   XY=            -13.4641   XZ=             -9.0968   YZ=              0.0785

  Exact polarizability: 186.425   3.443 165.499  11.550  10.292 106.191
 Approx polarizability: 270.085  23.735 280.548  25.250  26.757 173.495

                      1                      2                      3
                      A                      A                      A
 Frequencies --     26.9694                50.0723                67.9074
 Red. masses --      5.3439                 3.6641                 4.2194
 Frc consts  --      0.0023                 0.0054                 0.0115
 IR Inten    --      3.5793                 1.7376                 3.6130

                      4                      5                      6
                      A                      A                      A
 Frequencies --     76.2406               105.4147               120.6435
 Red. masses --      4.3472                 1.0599                 1.0780
 Frc consts  --      0.0149                 0.0069                 0.0092
 IR Inten    --      8.6867                 0.5658                 0.2026

                      7                      8                      9
                      A                      A                      A
 Frequencies --    131.0637               149.0195               164.0515
 Red. masses --      3.7765                 4.2149                 3.3798
 Frc consts  --      0.0382                 0.0551                 0.0536
 IR Inten    --     16.5916                 2.1086                 3.5668

                     10                     11                     12
                      A                      A                      A
 Frequencies --    185.8663               218.0612               263.2122
 Red. masses --      4.7969                 4.0620                 5.9521
 Frc consts  --      0.0976                 0.1138                 0.2430
 IR Inten    --      0.7462                 5.0187                 9.5261

                     13                     14                     15
                      A                      A                      A
 Frequencies --    267.5643               314.6807               340.5787
 Red. masses --      4.7547                 2.7530                 3.5639
 Frc consts  --      0.2006                 0.1606                 0.2436
 IR Inten    --     11.5085                 0.8526                 3.3541

                     16                     17                     18
                      A                      A                      A
 Frequencies --    359.5384               404.7340               422.0873
 Red. masses --      5.0440                 5.2141                 4.5723
 Frc consts  --      0.3842                 0.5032                 0.4799
 IR Inten    --     34.1792                 7.5951                11.2516

                     19                     20                     21
                      A                      A                      A
 Frequencies --    468.6059               492.6879               572.6741
 Red. masses --      3.1570                 3.1784                 4.1076
 Frc consts  --      0.4085                 0.4546                 0.7937
 IR Inten    --      4.9217                 5.8490                 4.8552

                     22                     23                     24
                      A                      A                      A
 Frequencies --    654.3284               662.7719               732.9570
 Red. masses --      4.7848                 3.0247                 1.4668
 Frc consts  --      1.2070                 0.7828                 0.4643
 IR Inten    --     22.5282                13.2733                 2.0408

                     25                     26                     27
                      A                      A                      A
 Frequencies --    740.6178               774.4082               803.7128
 Red. masses --      3.7926                 4.1737                 3.5101
 Frc consts  --      1.2257                 1.4747                 1.3359
 IR Inten    --     33.2932                14.6802                 6.6865

                     28                     29                     30
                      A                      A                      A
 Frequencies --    834.8107               894.2450               905.3744
 Red. masses --      3.0690                 1.3170                 2.7472
 Frc consts  --      1.2602                 0.6205                 1.3268
 IR Inten    --     14.0580                 3.1189                 1.5735

                     31                     32                     33
                      A                      A                      A
 Frequencies --    915.4369               943.9144               967.6114
 Red. masses --      7.1448                 1.5868                 1.4796
 Frc consts  --      3.5278                 0.8330                 0.8162
 IR Inten    --     21.7019                 1.9254                 5.7568

                     34                     35                     36
                      A                      A                      A
 Frequencies --    969.4897               990.0646               997.4583
 Red. masses --      1.6068                 2.7268                 1.7991
 Frc consts  --      0.8898                 1.5748                 1.0546
 IR Inten    --      8.8879               132.7355                14.7801

                     37                     38                     39
                      A                      A                      A
 Frequencies --   1032.7832              1049.5355              1062.9565
 Red. masses --      2.1635                 2.0647                 1.6209
 Frc consts  --      1.3596                 1.3400                 1.0790
 IR Inten    --     21.3248                22.8476                 3.3329

                     40                     41                     42
                      A                      A                      A
 Frequencies --   1066.8235              1090.7799              1107.0993
 Red. masses --      1.4204                 2.2616                 2.8563
 Frc consts  --      0.9525                 1.5854                 2.0627
 IR Inten    --      2.0893                21.6285                55.3964

                     43                     44                     45
                      A                      A                      A
 Frequencies --   1124.3893              1138.5453              1155.7687
 Red. masses --      3.7434                 1.5830                 1.4983
 Frc consts  --      2.7884                 1.2090                 1.1792
 IR Inten    --    123.1328                20.2282                15.5465

                     46                     47                     48
                      A                      A                      A
 Frequencies --   1186.8457              1278.8572              1287.2875
 Red. masses --      2.2396                 1.3833                 1.4071
 Frc consts  --      1.8587                 1.3329                 1.3739
 IR Inten    --      8.1098                13.5209                15.3108

                     49                     50                     51
                      A                      A                      A
 Frequencies --   1333.5216              1348.5498              1383.2399
 Red. masses --      1.6108                 2.1300                 1.5287
 Frc consts  --      1.6877                 2.2823                 1.7233
 IR Inten    --     41.1934                57.3466                11.9230

                     52                     53                     54
                      A                      A                      A
 Frequencies --   1401.4922              1414.2658              1417.5553
 Red. masses --      1.5973                 1.2991                 1.5778
 Frc consts  --      1.8485                 1.5310                 1.8680
 IR Inten    --     26.6294                 1.5205                 2.8485

                     55                     56                     57
                      A                      A                      A
 Frequencies --   1426.1448              1444.7749              1473.4410
 Red. masses --      1.2230                 1.3831                 1.0971
 Frc consts  --      1.4656                 1.7010                 1.4033
 IR Inten    --      1.1673                70.1806                12.2893

                     58                     59                     60
                      A                      A                      A
 Frequencies --   1478.1709              1479.1124              1485.7874
 Red. masses --      1.4653                 1.3071                 1.3701
 Frc consts  --      1.8864                 1.6848                 1.7821
 IR Inten    --     24.2173                28.4438                45.8332

                     61                     62                     63
                      A                      A                      A
 Frequencies --   1494.5874              1586.2018              1686.4079
 Red. masses --      1.2048                 6.6183                 6.6643
 Frc consts  --      1.5857                 9.8111                11.1669
 IR Inten    --     16.9873                42.5642                84.8354

                     64                     65                     66
                      A                      A                      A
 Frequencies --   1698.2607              1863.4054              2964.0333
 Red. masses --      7.1701                 8.8867                 1.0892
 Frc consts  --     12.1838                18.1804                 5.6380
 IR Inten    --     28.1972               151.6696                88.0398

                     67                     68                     69
                      A                      A                      A
 Frequencies --   2978.8793              3023.3995              3043.2989
 Red. masses --      1.0854                 1.0408                 1.0423
 Frc consts  --      5.6745                 5.6055                 5.6876
 IR Inten    --    102.2279                20.3356                16.8610

                     70                     71                     72
                      A                      A                      A
 Frequencies --   3065.7330              3091.7530              3103.1893
 Red. masses --      1.0978                 1.0864                 1.0930
 Frc consts  --      6.0790                 6.1186                 6.2012
 IR Inten    --     12.2711                 9.6019                 9.9074

                     73                     74                     75
                      A                      A                      A
 Frequencies --   3132.3454              3148.3377              3171.0288
 Red. masses --      1.0970                 1.0981                 1.0881
 Frc consts  --      6.3414                 6.4131                 6.4462
 IR Inten    --      7.1731                21.6317                14.6891

                     76                     77                     78
                      A                      A                      A
 Frequencies --   3208.5026              3246.1795              3547.6299
 Red. masses --      1.0950                 1.0897                 1.0775
 Frc consts  --      6.6415                 6.7656                 7.9899
 IR Inten    --     25.0213                 2.3270                34.7422

 - Thermochemistry -
 -------------------
 Temperature   298.150 Kelvin.  Pressure   1.00000 Atm.
 Atom     1 has atomic number  6 and mass  12.00000

 Molecular mass:   203.10586 amu.
 Principal axes and moments of inertia in atomic units:
                           1         2         3
     Eigenvalues --  2236.723594524.508695807.02331
           X            0.99892  -0.04617   0.00593
           Y            0.04606   0.99879   0.01752
           Z           -0.00673  -0.01722   0.99983
 This molecule is an asymmetric top.
 Rotational symmetry number  1.
 Warning -- assumption of classical behavior for rotation
           may cause significant error
 Rotational temperatures (Kelvin)      0.03872     0.01914     0.01492
 Rotational constants (GHZ):           0.80687     0.39888     0.31079
 Zero-point vibrational energy     584434.2 (Joules/Mol)
                                  139.68314 (Kcal/Mol)
 Warning -- explicit consideration of  21 degrees of freedom as
           vibrations may cause significant error
 Vibrational temperatures:     38.80    72.04    97.70   109.69   151.67
          (Kelvin)            173.58   188.57   214.41   236.03   267.42
                              313.74   378.70   384.97   452.76   490.02
                              517.30   582.32   607.29   674.22   708.87
                              823.95   941.43   953.58  1054.56  1065.58
                             1114.20  1156.36  1201.11  1286.62  1302.63
                             1317.11  1358.08  1392.18  1394.88  1424.48
                             1435.12  1485.94  1510.05  1529.36  1534.92
                             1569.39  1592.87  1617.75  1638.11  1662.89
                             1707.61  1839.99  1852.12  1918.64  1940.26
                             1990.17  2016.43  2034.81  2039.55  2051.90
                             2078.71  2119.95  2126.76  2128.11  2137.72
                             2150.38  2282.19  2426.36  2443.42  2681.02
                             4264.58  4285.94  4350.00  4378.63  4410.91
                             4448.34  4464.80  4506.75  4529.76  4562.40
                             4616.32  4670.53  5104.25

 Zero-point correction=                           0.222599 (Hartree/Particle)
 Thermal correction to Energy=                    0.237936
 Thermal correction to Enthalpy=                  0.238880
 Thermal correction to Gibbs Free Energy=         0.178768
 Sum of electronic and zero-point Energies=           -666.112586
 Sum of electronic and thermal Energies=              -666.097250
 Sum of electronic and thermal Enthalpies=            -666.096305
 Sum of electronic and thermal Free Energies=         -666.156417

                     E (Thermal)             CV                S
                      KCal/Mol        Cal/Mol-Kelvin    Cal/Mol-Kelvin
 Total                  149.307             55.279            126.516
 Electronic               0.000              0.000              0.000
 Translational            0.889              2.981             41.830
 Rotational               0.889              2.981             32.441
 Vibrational            147.530             49.317             52.245
 Vibration     1          0.593              1.984              6.041
 Vibration     2          0.595              1.978              4.815
 Vibration     3          0.598              1.970              4.213
 Vibration     4          0.599              1.965              3.985
 Vibration     5          0.605              1.945              3.352
 Vibration     6          0.609              1.932              3.090
 Vibration     7          0.612              1.922              2.930
 Vibration     8          0.618              1.904              2.685
 Vibration     9          0.623              1.887              2.503
 Vibration    10          0.632              1.859              2.269
 Vibration    11          0.646              1.814              1.975
 Vibration    12          0.670              1.740              1.640
 Vibration    13          0.673              1.733              1.612
 Vibration    14          0.702              1.646              1.338
 Vibration    15          0.720              1.594              1.209
 Vibration    16          0.734              1.556              1.124
 Vibration    17          0.770              1.460              0.945
 Vibration    18          0.784              1.422              0.885
 Vibration    19          0.826              1.320              0.741
 Vibration    20          0.848              1.266              0.677
 Vibration    21          0.929              1.090              0.499

 Optimization completed.
    -- Stationary point found.
 Normal termination of Gaussian 16 at Thu May 18 22:56:01 2023.
