 Gaussian 16, Revision A.03,
 Gaussian 16:  ES64L-G16RevA.03 25-Dec-2016

 -----------------------------
 # opt freq b3lyp/6-31g(2df,p)
 -----------------------------

 -------------------
 Title Card Required
 -------------------
 Symbolic Z-matrix:
 Charge =  0 Multiplicity = 1

 SCF Done:  E(RB3LYP) =  -630.380224762     A.U. after   15 cycles
 SCF Done:  E(RB3LYP) =  -630.425278314     A.U. after   12 cycles
 SCF Done:  E(RB3LYP) =  -630.458395760     A.U. after   13 cycles
 SCF Done:  E(RB3LYP) =  -630.463963010     A.U. after   13 cycles
 SCF Done:  E(RB3LYP) =  -630.467158991     A.U. after   12 cycles
 SCF Done:  E(RB3LYP) =  -630.470034140     A.U. after   12 cycles
 SCF Done:  E(RB3LYP) =  -630.472047419     A.U. after   12 cycles
 SCF Done:  E(RB3LYP) =  -630.472856209     A.U. after   12 cycles
 SCF Done:  E(RB3LYP) =  -630.473104513     A.U. after   12 cycles
 SCF Done:  E(RB3LYP) =  -630.473172215     A.U. after   10 cycles
 SCF Done:  E(RB3LYP) =  -630.473186387     A.U. after   10 cycles
 SCF Done:  E(RB3LYP) =  -630.473188539     A.U. after    8 cycles
 SCF Done:  E(RB3LYP) =  -630.473189498     A.U. after    8 cycles
 SCF Done:  E(RB3LYP) =  -630.473189667     A.U. after    7 cycles
 Optimization completed.
    -- Stationary point found.
 Normal termination of Gaussian 16 at Tue May 16 15:48:13 2023.

 ----------------------------------------------------------------------
 #N Geom=AllCheck Guess=TCheck SCRF=Check GenChk RB3LYP/6-31G(2df,p) Fr
 eq
 ----------------------------------------------------------------------

 Structure from the checkpoint file:  "CC1dCCdNC2dCNCNC2dCCCdC1.chk"
 -------------------
 Title Card Required
 -------------------
 Charge =  0 Multiplicity = 1

                         Standard orientation:
 ---------------------------------------------------------------------
 Center     Atomic      Atomic             Coordinates (Angstroms)
 Number     Number       Type             X           Y           Z
 ---------------------------------------------------------------------
      1          6           0        4.376987   -0.684071   -0.296836
      2          6           0        2.939500   -0.501945    0.140000
      3          6           0        2.074669   -1.535853    0.035437
      4          6           0        0.674045   -1.350056    0.356679
      5          7           0       -0.302184   -1.811249   -0.343329
      6          6           0       -1.463057   -1.000920   -0.211724
      7          6           0       -2.668729   -1.465517    0.171505
      8          7           0       -3.740478   -0.616368    0.444930
      9          6           0       -3.608326    0.735775   -0.071151
     10          7           0       -2.267452    1.232736    0.233767
     11          6           0       -1.237784    0.461828   -0.341297
     12          6           0       -0.064276    0.932759   -0.821389
     13          6           0        0.677387    2.172026   -0.440111
     14          6           0        1.864179    1.894121    0.488897
     15          6           0        2.694666    0.854883    0.707582
     16          1           0        4.562841   -1.699240   -0.655162
     17          1           0        5.064716   -0.481034    0.534160
     18          1           0        4.638916    0.020113   -1.095406
     19          1           0        2.388133   -2.456322   -0.448935
     20          1           0        0.502037   -0.599270    1.134253
     21          1           0       -2.822018   -2.513132    0.403366
     22          1           0       -4.649867   -1.019595    0.265486
     23          1           0       -4.338931    1.382605    0.424532
     24          1           0       -3.804978    0.759934   -1.162437
     25          1           0       -2.195778    2.212159   -0.010077
     26          1           0        0.565632    0.202802   -1.304922
     27          1           0        0.036364    2.898218    0.075514
     28          1           0        1.072056    2.706621   -1.319499
     29          1           0        2.107869    2.772689    1.087525
     30          1           0        3.488239    1.099441    1.418462
 ---------------------------------------------------------------------

 SCF Done:  E(RB3LYP) =  -630.473189667     A.U. after    1 cycles

 The electronic state is 1-A.
 Alpha  occ. eigenvalues --  -14.33782 -14.33288 -14.30407 -10.24702 -10.20814
 Alpha  occ. eigenvalues --  -10.20812 -10.20369 -10.19972 -10.19338 -10.19212
 Alpha  occ. eigenvalues --  -10.18865 -10.18838 -10.18199 -10.17843 -10.15135
 Alpha  occ. eigenvalues --   -0.96147  -0.91038  -0.88744  -0.82125  -0.79054
 Alpha  occ. eigenvalues --   -0.75398  -0.73122  -0.69991  -0.67283  -0.65649
 Alpha  occ. eigenvalues --   -0.60463  -0.58485  -0.56577  -0.52771  -0.51041
 Alpha  occ. eigenvalues --   -0.49692  -0.47739  -0.47643  -0.46159  -0.45373
 Alpha  occ. eigenvalues --   -0.44163  -0.43749  -0.41850  -0.41346  -0.40985
 Alpha  occ. eigenvalues --   -0.39408  -0.38427  -0.37499  -0.36456  -0.34443
 Alpha  occ. eigenvalues --   -0.32874  -0.32104  -0.31674  -0.30651  -0.26690
 Alpha  occ. eigenvalues --   -0.25275  -0.22792  -0.20035  -0.16167
 Alpha virt. eigenvalues --   -0.03588   0.00300   0.01640   0.05932   0.07638
 Alpha virt. eigenvalues --    0.09126   0.10821   0.11354   0.12369   0.14112
 Alpha virt. eigenvalues --    0.14195   0.15261   0.15801   0.16369   0.16899

 Mulliken charges:
               1
     1  C   -0.464588
     2  C    0.272517
     3  C   -0.204745
     4  C   -0.031745
     5  N   -0.278960
     6  C    0.241010
     7  C   -0.121033
     8  N   -0.298136
     9  C   -0.118552
    10  N   -0.369435
    11  C    0.235123
    12  C   -0.218901
    13  C   -0.344927
    14  C   -0.029228
    15  C   -0.142622
    16  H    0.124982
    17  H    0.127349
    18  H    0.132179
    19  H    0.097736
    20  H    0.107669
    21  H    0.110320
    22  H    0.236795
    23  H    0.109245
    24  H    0.088714
    25  H    0.231911
    26  H    0.115080
    27  H    0.095915
    28  H    0.117050
    29  H    0.089953
    30  H    0.089323
 Sum of Mulliken charges =  -0.00000

 Dipole moment (field-independent basis, Debye):
    X=             -0.9560    Y=              2.1367    Z=              0.0097  Tot=              2.3408
 Quadrupole moment (field-independent basis, Debye-Ang):
   XX=            -68.0381   YY=            -84.9908   ZZ=            -92.7518
   XY=             -1.1583   XZ=              2.0696   YZ=             -1.5717

  Exact polarizability: 243.641  13.461 153.395  -4.304   0.703  90.071
 Approx polarizability: 367.887  44.527 259.400 -16.671  -1.507 158.843

                      1                      2                      3
                      A                      A                      A
 Frequencies --     66.4487                81.3245                93.9164
 Red. masses --      4.0723                 3.1615                 3.4506
 Frc consts  --      0.0106                 0.0123                 0.0179
 IR Inten    --      2.5756                 0.5949                 1.1376

                      4                      5                      6
                      A                      A                      A
 Frequencies --    156.6563               181.6081               194.0565
 Red. masses --      1.9820                 1.8461                 1.9808
 Frc consts  --      0.0287                 0.0359                 0.0439
 IR Inten    --      3.5268                 0.7784                 1.9715

                      7                      8                      9
                      A                      A                      A
 Frequencies --    215.2532               245.2170               261.5530
 Red. masses --      3.3895                 3.2891                 3.6942
 Frc consts  --      0.0925                 0.1165                 0.1489
 IR Inten    --      3.4208                 3.5546                 1.0692

                     10                     11                     12
                      A                      A                      A
 Frequencies --    303.8213               336.8250               370.7938
 Red. masses --      2.9544                 4.2919                 2.7097
 Frc consts  --      0.1607                 0.2869                 0.2195
 IR Inten    --      5.7972                 4.6446                 4.2817

                     13                     14                     15
                      A                      A                      A
 Frequencies --    393.8491               401.6401               467.2941
 Red. masses --      3.0067                 3.2236                 3.5220
 Frc consts  --      0.2748                 0.3064                 0.4531
 IR Inten    --     10.5936                 1.6479                29.1250

                     16                     17                     18
                      A                      A                      A
 Frequencies --    473.7259               487.3759               531.8732
 Red. masses --      3.0943                 2.9590                 3.4430
 Frc consts  --      0.4091                 0.4141                 0.5738
 IR Inten    --     53.2128                29.1597                14.6989

                     19                     20                     21
                      A                      A                      A
 Frequencies --    558.3477               563.8287               583.0812
 Red. masses --      2.1932                 3.9348                 2.2966
 Frc consts  --      0.4028                 0.7370                 0.4600
 IR Inten    --     13.2620                34.7437               137.8979

                     22                     23                     24
                      A                      A                      A
 Frequencies --    595.8319               684.1537               708.6008
 Red. masses --      3.3472                 2.3125                 3.0962
 Frc consts  --      0.7001                 0.6377                 0.9160
 IR Inten    --     19.5442                28.0403                 9.9835

                     25                     26                     27
                      A                      A                      A
 Frequencies --    740.2318               745.7787               763.1603
 Red. masses --      2.7150                 3.0534                 3.1715
 Frc consts  --      0.8765                 1.0006                 1.0883
 IR Inten    --      6.0750                12.9944                22.4695

                     28                     29                     30
                      A                      A                      A
 Frequencies --    806.3548               859.2809               878.6732
 Red. masses --      2.4741                 2.5545                 1.5687
 Frc consts  --      0.9478                 1.1113                 0.7136
 IR Inten    --      8.3795                84.0479                41.6019

                     31                     32                     33
                      A                      A                      A
 Frequencies --    883.6704               915.0460               930.5437
 Red. masses --      1.5413                 1.3128                 2.4496
 Frc consts  --      0.7091                 0.6476                 1.2497
 IR Inten    --     27.3678                34.2300                 0.8828

                     34                     35                     36
                      A                      A                      A
 Frequencies --    942.6997               976.1470              1013.8868
 Red. masses --      2.6134                 2.0469                 1.3922
 Frc consts  --      1.3683                 1.1491                 0.8432
 IR Inten    --      5.4523                 3.3527                 6.9170

                     37                     38                     39
                      A                      A                      A
 Frequencies --   1023.0105              1034.0684              1053.8230
 Red. masses --      1.4515                 1.5590                 2.1493
 Frc consts  --      0.8950                 0.9822                 1.4063
 IR Inten    --      4.7601                 9.6850                21.0346

                     40                     41                     42
                      A                      A                      A
 Frequencies --   1064.9628              1101.1646              1109.1460
 Red. masses --      1.5737                 2.5751                 2.8226
 Frc consts  --      1.0516                 1.8397                 2.0458
 IR Inten    --      5.2029                19.6424                 9.6841

                     43                     44                     45
                      A                      A                      A
 Frequencies --   1122.8675              1177.9136              1197.3100
 Red. masses --      2.7111                 2.7712                 2.8770
 Frc consts  --      2.0140                 2.2654                 2.4299
 IR Inten    --      0.4007                 2.7392                35.2749

                     46                     47                     48
                      A                      A                      A
 Frequencies --   1203.5534              1214.5075              1234.7683
 Red. masses --      1.6692                 2.5333                 1.2670
 Frc consts  --      1.4246                 2.2016                 1.1382
 IR Inten    --     14.8036                96.3156                 5.9297

                     49                     50                     51
                      A                      A                      A
 Frequencies --   1280.7780              1301.0481              1322.1040
 Red. masses --      1.1722                 1.1880                 1.6265
 Frc consts  --      1.1329                 1.1848                 1.6751
 IR Inten    --      0.6518                 3.1355                 1.7706

                     52                     53                     54
                      A                      A                      A
 Frequencies --   1348.2734              1358.6163              1370.8278
 Red. masses --      1.4737                 1.2411                 1.4397
 Frc consts  --      1.5784                 1.3497                 1.5940
 IR Inten    --      2.2798                11.0249                 4.1011

                     55                     56                     57
                      A                      A                      A
 Frequencies --   1407.3499              1411.2333              1418.9055
 Red. masses --      1.2551                 1.7161                 1.3300
 Frc consts  --      1.4647                 2.0137                 1.5777
 IR Inten    --      1.6909                25.4772                18.5217

                     58                     59                     60
                      A                      A                      A
 Frequencies --   1439.0175              1465.4703              1476.4590
 Red. masses --      1.3418                 1.1146                 1.0506
 Frc consts  --      1.6371                 1.4104                 1.3494
 IR Inten    --      5.1382                 4.6738                 7.3411

                     61                     62                     63
                      A                      A                      A
 Frequencies --   1485.6615              1487.8131              1499.2923
 Red. masses --      1.4479                 1.1238                 1.4638
 Frc consts  --      1.8829                 1.4657                 1.9387
 IR Inten    --     78.3388                 9.8889                14.6834

                     64                     65                     66
                      A                      A                      A
 Frequencies --   1521.5071              1630.3540              1660.6839
 Red. masses --      1.1017                 6.9681                 6.2237
 Frc consts  --      1.5027                10.9127                10.1128
 IR Inten    --      2.2578                15.9049                 6.9924

                     67                     68                     69
                      A                      A                      A
 Frequencies --   1669.6112              1674.9671              1705.0889
 Red. masses --      6.5524                 5.9339                 6.3351
 Frc consts  --     10.7616                 9.8086                10.8517
 IR Inten    --     31.1770                 9.6513               191.2178

                     70                     71                     72
                      A                      A                      A
 Frequencies --   2879.9739              2971.6543              3019.6008
 Red. masses --      1.0731                 1.0698                 1.0383
 Frc consts  --      5.2441                 5.5659                 5.5779
 IR Inten    --    150.1712                46.1570                35.4724

                     73                     74                     75
                      A                      A                      A
 Frequencies --   3035.0433              3055.9789              3066.3761
 Red. masses --      1.0883                 1.0846                 1.0883
 Frc consts  --      5.9067                 5.9676                 6.0290
 IR Inten    --     21.7655                18.6872                49.9855

                     76                     77                     78
                      A                      A                      A
 Frequencies --   3069.5658              3076.8207              3116.6347
 Red. masses --      1.0968                 1.0825                 1.0892
 Frc consts  --      6.0890                 6.0376                 6.2335
 IR Inten    --     12.2945                17.8668                48.7057

                     79                     80                     81
                      A                      A                      A
 Frequencies --   3119.4006              3169.2840              3199.0561
 Red. masses --      1.0998                 1.0890                 1.0915
 Frc consts  --      6.3052                 6.4449                 6.5813
 IR Inten    --     22.7459                13.1851                 5.9073

                     82                     83                     84
                      A                      A                      A
 Frequencies --   3240.4950              3565.9755              3576.3349
 Red. masses --      1.0851                 1.0745                 1.0753
 Frc consts  --      6.7135                 8.0502                 8.1032
 IR Inten    --      1.8132                 2.2889                 9.9634

 - Thermochemistry -
 -------------------
 Temperature   298.150 Kelvin.  Pressure   1.00000 Atm.
 Atom     1 has atomic number  6 and mass  12.00000

 Molecular mass:   201.12660 amu.
 Principal axes and moments of inertia in atomic units:
                           1         2         3
     Eigenvalues --  1384.788524579.608485667.50552
           X            0.99998  -0.00577  -0.00047
           Y            0.00577   0.99998   0.00194
           Z            0.00046  -0.00194   1.00000
 This molecule is an asymmetric top.
 Rotational symmetry number  1.
 Warning -- assumption of classical behavior for rotation
           may cause significant error
 Rotational temperatures (Kelvin)      0.06255     0.01891     0.01528
 Rotational constants (GHZ):           1.30326     0.39408     0.31844
 Zero-point vibrational energy     664208.0 (Joules/Mol)
                                  158.74952 (Kcal/Mol)
 Warning -- explicit consideration of  22 degrees of freedom as
           vibrations may cause significant error
 Vibrational temperatures:     95.60   117.01   135.12   225.39   261.29
          (Kelvin)            279.20   309.70   352.81   376.32   437.13
                              484.62   533.49   566.66   577.87   672.33
                              681.59   701.23   765.25   803.34   811.22
                              838.92   857.27   984.34  1019.52  1065.03
                             1073.01  1098.02  1160.16  1236.31  1264.21
                             1271.40  1316.55  1338.84  1356.33  1404.46
                             1458.76  1471.88  1487.79  1516.22  1532.24
                             1584.33  1595.81  1615.56  1694.75  1722.66
                             1731.64  1747.41  1776.56  1842.75  1871.92
                             1902.21  1939.86  1954.75  1972.32  2024.86
                             2030.45  2041.49  2070.43  2108.48  2124.30
                             2137.54  2140.63  2157.15  2189.11  2345.72
                             2389.35  2402.20  2409.90  2453.24  4143.64
                             4275.55  4344.53  4366.75  4396.87  4411.83
                             4416.42  4426.86  4484.14  4488.12  4559.89
                             4602.73  4662.35  5130.64  5145.55

 Zero-point correction=                           0.252983 (Hartree/Particle)
 Thermal correction to Energy=                    0.266203
 Thermal correction to Enthalpy=                  0.267147
 Thermal correction to Gibbs Free Energy=         0.213961
 Sum of electronic and zero-point Energies=           -630.220206
 Sum of electronic and thermal Energies=              -630.206987
 Sum of electronic and thermal Enthalpies=            -630.206043
 Sum of electronic and thermal Free Energies=         -630.259228

                     E (Thermal)             CV                S
                      KCal/Mol        Cal/Mol-Kelvin    Cal/Mol-Kelvin
 Total                  167.045             53.278            111.938
 Electronic               0.000              0.000              0.000
 Translational            0.889              2.981             41.801
 Rotational               0.889              2.981             31.953
 Vibrational            165.267             47.317             38.185
 Vibration     1          0.598              1.970              4.256
 Vibration     2          0.600              1.962              3.859
 Vibration     3          0.603              1.954              3.577
 Vibration     4          0.620              1.895              2.590
 Vibration     5          0.630              1.865              2.312
 Vibration     6          0.635              1.848              2.189
 Vibration     7          0.645              1.818              1.999
 Vibration     8          0.660              1.771              1.765
 Vibration     9          0.669              1.743              1.651
 Vibration    10          0.695              1.666              1.396
 Vibration    11          0.718              1.602              1.227
 Vibration    12          0.743              1.532              1.077
 Vibration    13          0.761              1.483              0.986
 Vibration    14          0.767              1.467              0.957
 Vibration    15          0.825              1.323              0.745
 Vibration    16          0.831              1.308              0.727
 Vibration    17          0.843              1.278              0.690
 Vibration    18          0.887              1.179              0.583
 Vibration    19          0.914              1.121              0.527
 Vibration    20          0.920              1.110              0.516
 Vibration    21          0.940              1.068              0.480
 Vibration    22          0.954              1.041              0.457

                           ! Non-Optimized Parameters !
 Normal termination of Gaussian 16 at Tue May 16 18:04:30 2023.
