 Gaussian 16, Revision A.03,
 Gaussian 16:  ES64L-G16RevA.03 25-Dec-2016

 -----------------------------
 # opt freq b3lyp/6-31g(2df,p)
 -----------------------------

 -------------------
 Title Card Required
 -------------------
 Symbolic Z-matrix:
 Charge =  0 Multiplicity = 1

 SCF Done:  E(RB3LYP) =  -1713.59656306     A.U. after   37 cycles
 SCF Done:  E(RB3LYP) =  -1713.69011214     A.U. after   30 cycles
 SCF Done:  E(RB3LYP) =  -1713.76016375     A.U. after   35 cycles
 SCF Done:  E(RB3LYP) =  -1713.69229717     A.U. after   32 cycles
 SCF Done:  E(RB3LYP) =  -1713.87897160     A.U. after   35 cycles
 SCF Done:  E(RB3LYP) =  -1713.98419850     A.U. after   32 cycles
 SCF Done:  E(RB3LYP) =  -1714.03793215     A.U. after   37 cycles
 SCF Done:  E(RB3LYP) =  -1714.10175805     A.U. after   27 cycles
 SCF Done:  E(RB3LYP) =  -1714.13844350     A.U. after   28 cycles
 SCF Done:  E(RB3LYP) =  -1714.17278310     A.U. after  120 cycles
 SCF Done:  E(RB3LYP) =  -1714.22640028     A.U. after   13 cycles
 SCF Done:  E(RB3LYP) =  -1714.22640317     A.U. after   11 cycles
 SCF Done:  E(RB3LYP) =  -1714.22640403     A.U. after   10 cycles
 SCF Done:  E(RB3LYP) =  -1714.22640453     A.U. after   11 cycles
 SCF Done:  E(RB3LYP) =  -1714.22640476     A.U. after    9 cycles
 SCF Done:  E(RB3LYP) =  -1714.22640490     A.U. after    9 cycles
 SCF Done:  E(RB3LYP) =  -1714.22640496     A.U. after    9 cycles
 SCF Done:  E(RB3LYP) =  -1714.22640501     A.U. after    9 cycles
 SCF Done:  E(RB3LYP) =  -1714.22640503     A.U. after    9 cycles
 Optimization completed.
    -- Stationary point found.
 Normal termination of Gaussian 16 at Thu May 18 09:42:03 2023.

 ----------------------------------------------------------------------
 #N Geom=AllCheck Guess=TCheck SCRF=Check GenChk RB3LYP/6-31G(2df,p) Fr
 eq
 ----------------------------------------------------------------------

 Structure from the checkpoint file:  "CC1dCCdC2NdCSCdCCdCCdC[SH]2S1.chk"
 -------------------
 Title Card Required
 -------------------
 Charge =  0 Multiplicity = 1

                         Standard orientation:
 ---------------------------------------------------------------------
 Center     Atomic      Atomic             Coordinates (Angstroms)
 Number     Number       Type             X           Y           Z
 ---------------------------------------------------------------------
      1          6           0       -6.855851    0.617821    0.079640
      2          6           0       -5.436453    0.083464    0.132667
      3          6           0       -4.441807    1.104774    0.111998
      4          6           0       -3.060240    1.195496    0.068023
      5          6           0       -1.935939    0.346576   -0.109493
      6          7           0       -0.759804    1.007953   -0.013481
      7          6           0        0.391955    0.410176   -0.070653
      8         16           0        1.797647    1.394013    0.008474
      9          6           0        3.112371    0.291891   -0.007668
     10          6           0        4.411951    0.719620    0.005171
     11          6           0        5.518494   -0.152274    0.014106
     12          6           0        6.821582    0.270448   -0.094707
     13          6           0        7.965937   -0.585838    0.001093
     14          6           0        7.857022   -1.872886    0.390795
     15         16           0       -1.948165   -1.361773   -0.509400
     16         16           0       -5.240476   -1.571359    0.267787
     17          1           0       -7.003046    1.214770   -0.828717
     18          1           0       -7.042455    1.284041    0.930769
     19          1           0       -7.585725   -0.190180    0.096223
     20          1           0       -4.893868    2.094578    0.167281
     21          1           0       -2.701156    2.216243    0.176940
     22          1           0        0.541810   -0.669618   -0.150099
     23          1           0        2.871445   -0.766876   -0.017257
     24          1           0        4.610024    1.790595    0.016800
     25          1           0        5.348705   -1.225388    0.078875
     26          1           0        7.004567    1.337243   -0.218259
     27          1           0        8.931473   -0.124354   -0.245764
     28          1           0        8.696628   -2.393450    0.862628
     29          1           0       -3.297997   -1.572982   -0.170659
 ---------------------------------------------------------------------

 SCF Done:  E(RB3LYP) =  -1714.22640503     A.U. after    3 cycles

 The electronic state is 1-A.
 Alpha  occ. eigenvalues --  -88.94659 -88.87613 -88.85125 -14.35588 -10.27356
 Alpha  occ. eigenvalues --  -10.27109 -10.25503 -10.24627 -10.22410 -10.21963
 Alpha  occ. eigenvalues --  -10.21583 -10.21029 -10.20612 -10.19582 -10.19403
 Alpha  occ. eigenvalues --  -10.18829  -8.00793  -7.94303  -7.91734  -5.97141
 Alpha  occ. eigenvalues --   -5.96773  -5.96661  -5.90678  -5.90285  -5.90023
 Alpha  occ. eigenvalues --   -5.88039  -5.87888  -5.87358  -0.96836  -0.86972
 Alpha  occ. eigenvalues --   -0.84311  -0.82951  -0.80078  -0.77245  -0.74988
 Alpha  occ. eigenvalues --   -0.71832  -0.70029  -0.68596  -0.63770  -0.60937
 Alpha  occ. eigenvalues --   -0.58993  -0.57032  -0.54145  -0.52230  -0.50823
 Alpha  occ. eigenvalues --   -0.49025  -0.47327  -0.46446  -0.45361  -0.44442
 Alpha  occ. eigenvalues --   -0.43289  -0.42325  -0.41154  -0.40379  -0.40228
 Alpha  occ. eigenvalues --   -0.38415  -0.37937  -0.37215  -0.36672  -0.35687
 Alpha  occ. eigenvalues --   -0.34862  -0.34607  -0.32352  -0.29593  -0.28389
 Alpha  occ. eigenvalues --   -0.26505  -0.26025  -0.22088  -0.21112  -0.17229
 Alpha virt. eigenvalues --   -0.14740  -0.08186  -0.06085   0.00061   0.01093
 Alpha virt. eigenvalues --    0.01830   0.03389   0.06444   0.07490   0.07670
 Alpha virt. eigenvalues --    0.08701   0.08829   0.09296   0.10162   0.11813

 Mulliken charges:
               1
     1  C   -0.452503
     2  C    0.214668
     3  C   -0.088427
     4  C   -0.074821
     5  C    0.175240
     6  N   -0.241796
     7  C   -0.036179
     8  S    0.095371
     9  C   -0.139783
    10  C   -0.063566
    11  C   -0.065771
    12  C   -0.056007
    13  C   -0.064364
    14  C   -0.299604
    15  S   -0.258678
    16  S   -0.332373
    17  H    0.142761
    18  H    0.143075
    19  H    0.151710
    20  H    0.098202
    21  H    0.122944
    22  H    0.157082
    23  H    0.138952
    24  H    0.111030
    25  H    0.115209
    26  H    0.098008
    27  H    0.091978
    28  H    0.128995
    29  H    0.188649
 Sum of Mulliken charges =  -0.00000

 Dipole moment (field-independent basis, Debye):
    X=              1.1035    Y=              3.7665    Z=              0.0251  Tot=              3.9249
 Quadrupole moment (field-independent basis, Debye-Ang):
   XX=           -108.1014   YY=           -118.2683   ZZ=           -120.0760
   XY=             -1.7527   XZ=              0.6089   YZ=             -0.1047

  Exact polarizability:1394.667 -70.933 219.680  20.869  -7.947  99.311
 Approx polarizability:**************** 708.032 435.229 -84.862 191.266

                      1                      2                      3
                      A                      A                      A
 Frequencies --     16.0545                24.6488                28.9948
 Red. masses --      9.7301                 5.3758                 7.9312
 Frc consts  --      0.0015                 0.0019                 0.0039
 IR Inten    --      0.0493                 0.4695                 0.0742

                      4                      5                      6
                      A                      A                      A
 Frequencies --     40.7323                57.3526                82.2218
 Red. masses --      3.2076                 3.9340                 1.0494
 Frc consts  --      0.0031                 0.0076                 0.0042
 IR Inten    --      1.6941                 0.1835                 0.3026

                      7                      8                      9
                      A                      A                      A
 Frequencies --     86.1761                98.4611               136.1674
 Red. masses --      5.9180                 4.7178                 4.0812
 Frc consts  --      0.0259                 0.0269                 0.0446
 IR Inten    --      9.4777                 0.7544                 8.2457

                     10                     11                     12
                      A                      A                      A
 Frequencies --    151.1692               165.9576               177.9522
 Red. masses --      7.5684                 5.5737                 3.0311
 Frc consts  --      0.1019                 0.0904                 0.0566
 IR Inten    --      0.6164                 4.6221                21.9085

                     13                     14                     15
                      A                      A                      A
 Frequencies --    198.5598               210.1403               232.1225
 Red. masses --      5.2984                 4.4968                 6.2510
 Frc consts  --      0.1231                 0.1170                 0.1984
 IR Inten    --      2.8207                12.2140                 1.8231

                     16                     17                     18
                      A                      A                      A
 Frequencies --    267.9173               305.6743               335.9370
 Red. masses --      4.2904                 4.6523                 2.3288
 Frc consts  --      0.1814                 0.2561                 0.1548
 IR Inten    --      1.4287                 3.6628                 6.9029

                     19                     20                     21
                      A                      A                      A
 Frequencies --    353.9409               382.5889               413.8876
 Red. masses --      3.9881                 3.6531                 5.0206
 Frc consts  --      0.2944                 0.3150                 0.5067
 IR Inten    --      1.7712                 7.7816                11.5415

                     22                     23                     24
                      A                      A                      A
 Frequencies --    422.6563               466.4313               497.5246
 Red. masses --      4.3359                 4.7132                 3.3672
 Frc consts  --      0.4564                 0.6041                 0.4911
 IR Inten    --     10.6703                10.2524                11.2760

                     25                     26                     27
                      A                      A                      A
 Frequencies --    515.0818               589.2898               597.1357
 Red. masses --      5.8649                 1.4856                 1.9554
 Frc consts  --      0.9168                 0.3040                 0.4108
 IR Inten    --     20.8069                91.7656               381.2347

                     28                     29                     30
                      A                      A                      A
 Frequencies --    603.9618               606.7448               633.1346
 Red. masses --      3.6924                 1.7234                 1.7293
 Frc consts  --      0.7936                 0.3738                 0.4084
 IR Inten    --     20.5055               419.0444                20.5666

                     31                     32                     33
                      A                      A                      A
 Frequencies --    705.6821               723.5180               771.6254
 Red. masses --      4.3120                 2.4661                 6.5312
 Frc consts  --      1.2652                 0.7606                 2.2912
 IR Inten    --    407.4416              1941.5111                13.9997

                     34                     35                     36
                      A                      A                      A
 Frequencies --    805.9077               822.1637               846.6854
 Red. masses --      1.5527                 1.3546                 1.6085
 Frc consts  --      0.5942                 0.5395                 0.6794
 IR Inten    --     77.4161                22.8451                 3.8691

                     37                     38                     39
                      A                      A                      A
 Frequencies --    870.1046               901.4674               924.1094
 Red. masses --      3.8169                 3.8220                 1.5685
 Frc consts  --      1.7026                 1.8299                 0.7892
 IR Inten    --    562.5285               178.9498               707.0561

                     40                     41                     42
                      A                      A                      A
 Frequencies --    943.7947               958.4932               980.7371
 Red. masses --      1.5101                 1.3508                 1.6687
 Frc consts  --      0.7925                 0.7312                 0.9457
 IR Inten    --    214.8278               374.1275               203.3461

                     43                     44                     45
                      A                      A                      A
 Frequencies --   1002.9818              1023.0715              1029.5768
 Red. masses --      1.3038                 1.5463                 1.1537
 Frc consts  --      0.7728                 0.9535                 0.7206
 IR Inten    --      7.6411                 1.9440               144.6401

                     46                     47                     48
                      A                      A                      A
 Frequencies --   1049.2588              1077.6097              1129.8946
 Red. masses --      1.2234                 2.0382                 4.8262
 Frc consts  --      0.7936                 1.3945                 3.6302
 IR Inten    --     14.2176                46.2086                19.4259

                     49                     50                     51
                      A                      A                      A
 Frequencies --   1170.3337              1175.3182              1205.1495
 Red. masses --      2.9915                 1.5841                 1.2354
 Frc consts  --      2.4142                 1.2893                 1.0572
 IR Inten    --    115.8301               747.7764                 2.3182

                     52                     53                     54
                      A                      A                      A
 Frequencies --   1234.9179              1246.4154              1287.6295
 Red. masses --      3.1628                 1.4597                 1.8145
 Frc consts  --      2.8418                 1.3361                 1.7726
 IR Inten    --     15.1605                56.9019               192.8177

                     55                     56                     57
                      A                      A                      A
 Frequencies --   1294.2257              1308.6509              1329.7621
 Red. masses --      2.3257                 1.4417                 1.9089
 Frc consts  --      2.2952                 1.4547                 1.9887
 IR Inten    --    127.2644                59.4243                43.1893

                     58                     59                     60
                      A                      A                      A
 Frequencies --   1341.2650              1381.4835              1392.1196
 Red. masses --      1.7182                 1.8318                 1.2470
 Frc consts  --      1.8212                 2.0598                 1.4239
 IR Inten    --    157.1058               751.5859                67.1391

                     61                     62                     63
                      A                      A                      A
 Frequencies --   1453.6801              1478.0014              1479.7358
 Red. masses --      1.7737                 1.1947                 1.1504
 Frc consts  --      2.2083                 1.5377                 1.4841
 IR Inten    --     33.6379                24.5774                33.2330

                     64                     65                     66
                      A                      A                      A
 Frequencies --   1488.2888              1501.9988              1565.3205
 Red. masses --      2.6243                 1.6237                 4.5421
 Frc consts  --      3.4248                 2.1583                 6.5571
 IR Inten    --    380.6096                66.0824                29.6024

                     67                     68                     69
                      A                      A                      A
 Frequencies --   1588.6673              1599.8164              1868.2668
 Red. masses --      6.3580                 4.0487                 1.0766
 Frc consts  --      9.4545                 6.1053                 2.2139
 IR Inten    --    980.7914                12.8642               882.1500

                     70                     71                     72
                      A                      A                      A
 Frequencies --   3005.6971              3024.3413              3078.4756
 Red. masses --      1.0801                 1.0397                 1.0986
 Frc consts  --      5.7494                 5.6032                 6.1343
 IR Inten    --     93.5208                 7.5924                 8.3179

                     73                     74                     75
                      A                      A                      A
 Frequencies --   3081.4680              3095.0001              3118.7779
 Red. masses --      1.0865                 1.0934                 1.0834
 Frc consts  --      6.0786                 6.1708                 6.2088
 IR Inten    --      6.0660               123.8287                18.0791

                     76                     77                     78
                      A                      A                      A
 Frequencies --   3138.5656              3140.1576              3155.5792
 Red. masses --      1.0888                 1.0886                 1.0866
 Frc consts  --      6.3191                 6.3244                 6.3750
 IR Inten    --      3.3556                66.9475                13.3335

                     79                     80                     81
                      A                      A                      A
 Frequencies --   3157.7408              3158.9329              3176.8616
 Red. masses --      1.0971                 1.0877                 1.0888
 Frc consts  --      6.4456                 6.3952                 6.4740
 IR Inten    --     10.9539                 6.8878                 1.4695

 - Thermochemistry -
 -------------------
 Temperature   298.150 Kelvin.  Pressure   1.00000 Atm.
 Atom     1 has atomic number  6 and mass  12.00000

 Molecular mass:   267.02101 amu.
 Principal axes and moments of inertia in atomic units:
                           1         2         3
     Eigenvalues --  1260.59267********************
           X            0.99997  -0.00747   0.00036
           Y            0.00747   0.99997  -0.00338
           Z           -0.00034   0.00338   0.99999
 This molecule is an asymmetric top.
 Rotational symmetry number  1.
 Warning -- assumption of classical behavior for rotation
           may cause significant error
 Rotational temperatures (Kelvin)      0.06871     0.00427     0.00404
 Rotational constants (GHZ):           1.43166     0.08894     0.08418
 Zero-point vibrational energy     550210.1 (Joules/Mol)
                                  131.50337 (Kcal/Mol)
 Warning -- explicit consideration of  29 degrees of freedom as
           vibrations may cause significant error
 Vibrational temperatures:     23.10    35.46    41.72    58.60    82.52
          (Kelvin)            118.30   123.99   141.66   195.91   217.50
                              238.78   256.03   285.68   302.35   333.97
                              385.47   439.80   483.34   509.24   550.46
                              595.49   608.11   671.09   715.83   741.09
                              847.86   859.15   868.97   872.97   910.94
                             1015.32  1040.98  1110.20  1159.52  1182.91
                             1218.19  1251.89  1297.01  1329.59  1357.91
                             1379.06  1411.06  1443.07  1471.97  1481.33
                             1509.65  1550.44  1625.67  1683.85  1691.02
                             1733.94  1776.77  1793.31  1852.61  1862.10
                             1882.86  1913.23  1929.78  1987.65  2002.95
                             2091.52  2126.51  2129.01  2141.32  2161.04
                             2252.15  2285.74  2301.78  2688.02  4324.53
                             4351.35  4429.24  4433.55  4453.01  4487.23
                             4515.70  4517.99  4540.17  4543.28  4545.00
                             4570.80

 Zero-point correction=                           0.209564 (Hartree/Particle)
 Thermal correction to Energy=                    0.228330
 Thermal correction to Enthalpy=                  0.229274
 Thermal correction to Gibbs Free Energy=         0.158380
 Sum of electronic and zero-point Energies=          -1714.016841
 Sum of electronic and thermal Energies=             -1713.998075
 Sum of electronic and thermal Enthalpies=           -1713.997131
 Sum of electronic and thermal Free Energies=        -1714.068025

                     E (Thermal)             CV                S
                      KCal/Mol        Cal/Mol-Kelvin    Cal/Mol-Kelvin
 Total                  143.279             65.995            149.209
 Electronic               0.000              0.000              0.000
 Translational            0.889              2.981             42.646
 Rotational               0.889              2.981             34.660
 Vibrational            141.502             60.033             71.904
 Vibration     1          0.593              1.986              7.071
 Vibration     2          0.593              1.985              6.219
 Vibration     3          0.593              1.984              5.897
 Vibration     4          0.594              1.981              5.223
 Vibration     5          0.596              1.975              4.546
 Vibration     6          0.600              1.961              3.837
 Vibration     7          0.601              1.959              3.745
 Vibration     8          0.604              1.950              3.485
 Vibration     9          0.614              1.917              2.857
 Vibration    10          0.619              1.901              2.657
 Vibration    11          0.624              1.884              2.481
 Vibration    12          0.628              1.869              2.350
 Vibration    13          0.637              1.842              2.146
 Vibration    14          0.642              1.825              2.042
 Vibration    15          0.653              1.792              1.862
 Vibration    16          0.673              1.732              1.610
 Vibration    17          0.696              1.663              1.386
 Vibration    18          0.717              1.604              1.231
 Vibration    19          0.730              1.567              1.149
 Vibration    20          0.752              1.507              1.029
 Vibration    21          0.777              1.440              0.913
 Vibration    22          0.785              1.421              0.883
 Vibration    23          0.824              1.325              0.748
 Vibration    24          0.853              1.256              0.664
 Vibration    25          0.870              1.217              0.621
 Vibration    26          0.947              1.055              0.468
 Vibration    27          0.955              1.038              0.455
 Vibration    28          0.962              1.023              0.443
 Vibration    29          0.965              1.018              0.438

                           ! Non-Optimized Parameters !
 Normal termination of Gaussian 16 at Thu May 18 11:30:29 2023.
