 Gaussian 16, Revision A.03,
 Gaussian 16:  ES64L-G16RevA.03 25-Dec-2016

 -----------------------------
 # opt freq b3lyp/6-31g(2df,p)
 -----------------------------

 -------------------
 Title Card Required
 -------------------
 Symbolic Z-matrix:
 Charge =  0 Multiplicity = 1

 SCF Done:  E(RB3LYP) =  -954.719539473     A.U. after   18 cycles
 SCF Done:  E(RB3LYP) =  -954.772778011     A.U. after   15 cycles
 SCF Done:  E(RB3LYP) =  -954.811025544     A.U. after   15 cycles
 SCF Done:  E(RB3LYP) =  -954.823957291     A.U. after   15 cycles
 SCF Done:  E(RB3LYP) =  -954.829091323     A.U. after   14 cycles
 SCF Done:  E(RB3LYP) =  -954.834139003     A.U. after   14 cycles
 SCF Done:  E(RB3LYP) =  -954.840908804     A.U. after   15 cycles
 SCF Done:  E(RB3LYP) =  -954.846064201     A.U. after   14 cycles
 SCF Done:  E(RB3LYP) =  -954.852886408     A.U. after   15 cycles
 SCF Done:  E(RB3LYP) =  -954.855877165     A.U. after   15 cycles
 SCF Done:  E(RB3LYP) =  -954.857979131     A.U. after   13 cycles
 SCF Done:  E(RB3LYP) =  -954.858284940     A.U. after   13 cycles
 SCF Done:  E(RB3LYP) =  -954.858365445     A.U. after   11 cycles
 SCF Done:  E(RB3LYP) =  -954.858380701     A.U. after   11 cycles
 SCF Done:  E(RB3LYP) =  -954.858387722     A.U. after   10 cycles
 SCF Done:  E(RB3LYP) =  -954.858391074     A.U. after    9 cycles
 SCF Done:  E(RB3LYP) =  -954.858392729     A.U. after    9 cycles
 SCF Done:  E(RB3LYP) =  -954.858393353     A.U. after    9 cycles
 SCF Done:  E(RB3LYP) =  -954.858393536     A.U. after    8 cycles
 Optimization completed.
    -- Stationary point found.
 Normal termination of Gaussian 16 at Tue May 16 13:21:37 2023.

 ----------------------------------------------------------------------
 #N Geom=AllCheck Guess=TCheck SCRF=Check GenChk RB3LYP/6-31G(2df,p) Fr
 eq
 ----------------------------------------------------------------------

 Structure from the checkpoint file:  "CC1dCCdc2ccccc2dNCdCC1dS.chk"
 -------------------
 Title Card Required
 -------------------
 Charge =  0 Multiplicity = 1

                         Standard orientation:
 ---------------------------------------------------------------------
 Center     Atomic      Atomic             Coordinates (Angstroms)
 Number     Number       Type             X           Y           Z
 ---------------------------------------------------------------------
      1          6           0       -3.373750    1.880476    0.625905
      2          6           0       -2.150151    1.078190    0.278476
      3          6           0       -0.963490    1.712297    0.027952
      4          6           0        0.420371    1.447732   -0.344337
      5          6           0        1.542292    0.617835   -0.238411
      6          6           0        2.767935    1.358192   -0.550122
      7          6           0        4.022398    0.926435   -0.290093
      8          6           0        4.228167   -0.365030    0.298295
      9          6           0        3.172905   -1.181343    0.494840
     10          6           0        1.807990   -0.822252    0.128500
     11          7           0        1.010268   -1.847827    0.028675
     12          6           0       -0.315672   -1.708623   -0.171602
     13          6           0       -1.083515   -0.988413    0.677260
     14          6           0       -2.292178   -0.386869    0.182973
     15         16           0       -3.563753   -1.137346   -0.549372
     16          1           0       -3.713893    1.640807    1.640790
     17          1           0       -4.194782    1.613183   -0.046749
     18          1           0       -3.186222    2.954714    0.569877
     19          1           0       -1.094545    2.794951    0.027623
     20          1           0        0.763455    2.390622   -0.768549
     21          1           0        2.638223    2.354263   -0.960050
     22          1           0        4.872168    1.564022   -0.506603
     23          1           0        5.231678   -0.689128    0.553303
     24          1           0        3.288877   -2.188985    0.875169
     25          1           0       -0.759504   -2.187715   -1.044346
     26          1           0       -0.597099   -0.526176    1.530935
 ---------------------------------------------------------------------

 SCF Done:  E(RB3LYP) =  -954.858393536     A.U. after    1 cycles

 The electronic state is 1-A.
 Alpha  occ. eigenvalues --  -88.84665 -14.33831 -10.25662 -10.25168 -10.23310
 Alpha  occ. eigenvalues --  -10.23304 -10.23042 -10.22786 -10.21670 -10.20420
 Alpha  occ. eigenvalues --  -10.20389 -10.19797 -10.19365 -10.19210 -10.18962
 Alpha  occ. eigenvalues --   -7.91158  -5.87482  -5.87419  -5.86683  -0.95353
 Alpha  occ. eigenvalues --   -0.86304  -0.85984  -0.80513  -0.78699  -0.75191
 Alpha  occ. eigenvalues --   -0.73867  -0.70178  -0.68198  -0.62364  -0.62093
 Alpha  occ. eigenvalues --   -0.60611  -0.54972  -0.52989  -0.51849  -0.49104
 Alpha  occ. eigenvalues --   -0.48416  -0.47035  -0.44934  -0.44053  -0.43422
 Alpha  occ. eigenvalues --   -0.42146  -0.40697  -0.39964  -0.38611  -0.38318
 Alpha  occ. eigenvalues --   -0.36921  -0.36746  -0.35907  -0.33487  -0.32091
 Alpha  occ. eigenvalues --   -0.30702  -0.30284  -0.26439  -0.22974  -0.21358
 Alpha  occ. eigenvalues --   -0.21159
 Alpha virt. eigenvalues --   -0.11689  -0.05933  -0.02153   0.00142   0.03322
 Alpha virt. eigenvalues --    0.05723   0.07460   0.09562   0.10723   0.11526
 Alpha virt. eigenvalues --    0.12963   0.13225   0.14183   0.15534   0.15983

 Mulliken charges:
               1
     1  C   -0.483666
     2  C    0.182008
     3  C   -0.126378
     4  C   -0.123091
     5  C    0.159629
     6  C   -0.096275
     7  C   -0.139365
     8  C   -0.112015
     9  C   -0.102631
    10  C    0.157673
    11  N   -0.274320
    12  C    0.019161
    13  C   -0.217355
    14  C    0.183697
    15  S   -0.352568
    16  H    0.142677
    17  H    0.170276
    18  H    0.123155
    19  H    0.101582
    20  H    0.101749
    21  H    0.105346
    22  H    0.104443
    23  H    0.109168
    24  H    0.115362
    25  H    0.141479
    26  H    0.110259
 Sum of Mulliken charges =  -0.00000

 Dipole moment (field-independent basis, Debye):
    X=              3.0651    Y=              3.5444    Z=              0.7039  Tot=              4.7385
 Quadrupole moment (field-independent basis, Debye-Ang):
   XX=            -92.9612   YY=            -92.2927   ZZ=            -94.2962
   XY=             -5.0369   XZ=             -3.1229   YZ=             -0.7893

  Exact polarizability: 335.590   1.845 167.668   5.188  -3.877  88.812
 Approx polarizability: 634.141 -14.325 333.710  12.370  -7.467 162.312

                      1                      2                      3
                      A                      A                      A
 Frequencies --     41.0305                68.7800               104.9860
 Red. masses --      5.8663                 4.2691                 3.4203
 Frc consts  --      0.0058                 0.0119                 0.0222
 IR Inten    --      0.4149                 0.1076                 1.5162

                      4                      5                      6
                      A                      A                      A
 Frequencies --    155.2336               160.7813               197.0112
 Red. masses --      5.9013                 1.2790                 3.7247
 Frc consts  --      0.0838                 0.0195                 0.0852
 IR Inten    --      0.5370                 0.3879                 0.5645

                      7                      8                      9
                      A                      A                      A
 Frequencies --    201.7847               245.3339               249.5823
 Red. masses --      3.7956                 3.4422                 4.8383
 Frc consts  --      0.0911                 0.1221                 0.1776
 IR Inten    --      5.4437                 2.4080                 1.8506

                     10                     11                     12
                      A                      A                      A
 Frequencies --    293.6263               351.1083               354.4518
 Red. masses --      3.4771                 3.8777                 2.8874
 Frc consts  --      0.1766                 0.2816                 0.2137
 IR Inten    --      0.3082                 1.7003                 2.9143

                     13                     14                     15
                      A                      A                      A
 Frequencies --    394.7126               454.1272               478.6284
 Red. masses --      4.2201                 3.6296                 4.6255
 Frc consts  --      0.3874                 0.4410                 0.6243
 IR Inten    --      3.1716                 5.7018                 2.3225

                     16                     17                     18
                      A                      A                      A
 Frequencies --    498.2175               534.5947               543.2864
 Red. masses --      4.3550                 3.7047                 4.7636
 Frc consts  --      0.6369                 0.6238                 0.8284
 IR Inten    --      8.3696                 3.0881                 0.3598

                     19                     20                     21
                      A                      A                      A
 Frequencies --    597.5697               606.3655               656.3648
 Red. masses --      5.3062                 6.2383                 4.5951
 Frc consts  --      1.1164                 1.3514                 1.1664
 IR Inten    --     27.5572                18.0406                 5.5555

                     22                     23                     24
                      A                      A                      A
 Frequencies --    690.2470               724.0660               749.4822
 Red. masses --      4.8851                 4.0654                 3.3724
 Frc consts  --      1.3713                 1.2558                 1.1161
 IR Inten    --      5.6186                 0.9197                42.8097

                     25                     26                     27
                      A                      A                      A
 Frequencies --    757.9386               775.5130               849.6871
 Red. masses --      1.4895                 3.4431                 2.2021
 Frc consts  --      0.5042                 1.2201                 0.9367
 IR Inten    --     27.7171                 9.9532                 3.1305

                     28                     29                     30
                      A                      A                      A
 Frequencies --    860.0439               872.9017               909.6292
 Red. masses --      2.2953                 1.5043                 2.0987
 Frc consts  --      1.0003                 0.6753                 1.0231
 IR Inten    --     15.1666                13.9930                 8.6283

                     31                     32                     33
                      A                      A                      A
 Frequencies --    946.8419               956.6159               970.9548
 Red. masses --      1.5853                 1.3121                 1.7020
 Frc consts  --      0.8374                 0.7074                 0.9454
 IR Inten    --     25.5694                50.2429                10.4355

                     34                     35                     36
                      A                      A                      A
 Frequencies --    982.8009               996.8856              1020.1340
 Red. masses --      1.6004                 1.2958                 3.3398
 Frc consts  --      0.9107                 0.7587                 2.0478
 IR Inten    --      3.6907                 1.4758                20.7018

                     37                     38                     39
                      A                      A                      A
 Frequencies --   1036.6819              1055.5227              1096.9877
 Red. masses --      2.0302                 1.5471                 2.8892
 Frc consts  --      1.2855                 1.0156                 2.0485
 IR Inten    --     19.4450                 5.9244                 7.9172

                     40                     41                     42
                      A                      A                      A
 Frequencies --   1127.7599              1162.4301              1192.9513
 Red. masses --      3.0021                 1.5841                 2.6104
 Frc consts  --      2.2496                 1.2612                 2.1888
 IR Inten    --     58.2766                11.7247                17.3991

                     43                     44                     45
                      A                      A                      A
 Frequencies --   1227.1815              1247.1924              1252.6766
 Red. masses --      2.4065                 1.6460                 1.6556
 Frc consts  --      2.1353                 1.5085                 1.5307
 IR Inten    --     33.4879                 6.5286                34.3364

                     46                     47                     48
                      A                      A                      A
 Frequencies --   1278.2947              1314.4892              1342.0549
 Red. masses --      2.4029                 1.5055                 2.6118
 Frc consts  --      2.3134                 1.5326                 2.7716
 IR Inten    --     73.4297                48.0177                11.8258

                     49                     50                     51
                      A                      A                      A
 Frequencies --   1399.8263              1402.2111              1426.9150
 Red. masses --      1.7614                 1.2472                 1.6891
 Frc consts  --      2.0335                 1.4448                 2.0263
 IR Inten    --      2.5855                 1.4826                14.1547

                     52                     53                     54
                      A                      A                      A
 Frequencies --   1451.8106              1465.1985              1470.4506
 Red. masses --      2.5620                 1.1496                 1.8469
 Frc consts  --      3.1816                 1.4541                 2.3529
 IR Inten    --     58.5803                24.2798                 5.6792

                     55                     56                     57
                      A                      A                      A
 Frequencies --   1496.1830              1528.9228              1579.3946
 Red. masses --      1.1548                 1.5394                 3.6761
 Frc consts  --      1.5231                 2.1202                 5.4027
 IR Inten    --     15.6839                 7.5506                58.1530

                     58                     59                     60
                      A                      A                      A
 Frequencies --   1595.1186              1602.9961              1611.3149
 Red. masses --      3.9943                 6.4252                 3.8589
 Frc consts  --      5.9879                 9.7274                 5.9030
 IR Inten    --     91.9615                31.0934                13.0227

                     61                     62                     63
                      A                      A                      A
 Frequencies --   1686.9267              3030.7037              3088.6656
 Red. masses --      5.6743                 1.0386                 1.0937
 Frc consts  --      9.5138                 5.6205                 6.1476
 IR Inten    --      2.4934                11.8780                 7.0879

                     64                     65                     66
                      A                      A                      A
 Frequencies --   3092.2996              3119.1387              3131.2917
 Red. masses --      1.0830                 1.0865                 1.1005
 Frc consts  --      6.1016                 6.2281                 6.3578
 IR Inten    --      7.1475                16.5616                24.2619

                     67                     68                     69
                      A                      A                      A
 Frequencies --   3135.0383              3166.0606              3170.5908
 Red. masses --      1.0881                 1.0872                 1.0849
 Frc consts  --      6.3010                 6.4208                 6.4259
 IR Inten    --      0.9225                 4.3695                 3.3809

                     70                     71                     72
                      A                      A                      A
 Frequencies --   3182.0284              3198.8251              3211.9892
 Red. masses --      1.0878                 1.0941                 1.0965
 Frc consts  --      6.4896                 6.5961                 6.6654
 IR Inten    --     12.6000                19.0907                10.8689

 - Thermochemistry -
 -------------------
 Temperature   298.150 Kelvin.  Pressure   1.00000 Atm.
 Atom     1 has atomic number  6 and mass  12.00000

 Molecular mass:   213.06122 amu.
 Principal axes and moments of inertia in atomic units:
                           1         2         3
     Eigenvalues --  1447.175545532.769836681.25077
           X            0.99986  -0.01585  -0.00510
           Y            0.01583   0.99987  -0.00350
           Z            0.00516   0.00342   0.99998
 This molecule is an asymmetric top.
 Rotational symmetry number  1.
 Warning -- assumption of classical behavior for rotation
           may cause significant error
 Rotational temperatures (Kelvin)      0.05985     0.01565     0.01296
 Rotational constants (GHZ):           1.24708     0.32619     0.27012
 Zero-point vibrational energy     531318.1 (Joules/Mol)
                                  126.98806 (Kcal/Mol)
 Warning -- explicit consideration of  20 degrees of freedom as
           vibrations may cause significant error
 Vibrational temperatures:     59.03    98.96   151.05   223.35   231.33
          (Kelvin)            283.46   290.32   352.98   359.09   422.46
                              505.17   509.98   567.90   653.39   688.64
                              716.82   769.16   781.67   859.77   872.42
                              944.36   993.11  1041.77  1078.34  1090.50
                             1115.79  1222.51  1237.41  1255.91  1308.75
                             1362.29  1376.36  1396.99  1414.03  1434.30
                             1467.75  1491.55  1518.66  1578.32  1622.59
                             1672.48  1716.39  1765.64  1794.43  1802.32
                             1839.18  1891.26  1930.92  2014.04  2017.47
                             2053.01  2088.83  2108.09  2115.65  2152.67
                             2199.78  2272.40  2295.02  2306.35  2318.32
                             2427.11  4360.51  4443.90  4449.13  4487.74
                             4505.23  4510.62  4555.26  4561.77  4578.23
                             4602.40  4621.34

 Zero-point correction=                           0.202368 (Hartree/Particle)
 Thermal correction to Energy=                    0.215223
 Thermal correction to Enthalpy=                  0.216167
 Thermal correction to Gibbs Free Energy=         0.162690
 Sum of electronic and zero-point Energies=           -954.656025
 Sum of electronic and thermal Energies=              -954.643171
 Sum of electronic and thermal Enthalpies=            -954.642226
 Sum of electronic and thermal Free Energies=         -954.695703

                     E (Thermal)             CV                S
                      KCal/Mol        Cal/Mol-Kelvin    Cal/Mol-Kelvin
 Total                  135.054             50.278            112.551
 Electronic               0.000              0.000              0.000
 Translational            0.889              2.981             41.973
 Rotational               0.889              2.981             32.348
 Vibrational            133.277             44.317             38.231
 Vibration     1          0.594              1.981              5.209
 Vibration     2          0.598              1.969              4.188
 Vibration     3          0.605              1.945              3.360
 Vibration     4          0.620              1.897              2.607
 Vibration     5          0.622              1.890              2.541
 Vibration     6          0.636              1.844              2.161
 Vibration     7          0.639              1.837              2.117
 Vibration     8          0.660              1.770              1.764
 Vibration     9          0.662              1.763              1.734
 Vibration    10          0.688              1.686              1.453
 Vibration    11          0.728              1.573              1.161
 Vibration    12          0.730              1.566              1.146
 Vibration    13          0.762              1.481              0.982
 Vibration    14          0.813              1.352              0.783
 Vibration    15          0.835              1.297              0.714
 Vibration    16          0.854              1.254              0.663
 Vibration    17          0.890              1.173              0.577
 Vibration    18          0.898              1.154              0.558
 Vibration    19          0.955              1.037              0.454
 Vibration    20          0.965              1.018              0.439

                           ! Non-Optimized Parameters !
 Normal termination of Gaussian 16 at Tue May 16 15:27:35 2023.
