 Gaussian 16, Revision A.03,
 Gaussian 16:  ES64L-G16RevA.03 25-Dec-2016

 -----------------------------
 # opt freq b3lyp/6-31g(2df,p)
 -----------------------------

 -------------------
 Title Card Required
 -------------------
 Symbolic Z-matrix:
 Charge =  0 Multiplicity = 1

 SCF Done:  E(RB3LYP) =  -681.593921653     A.U. after   38 cycles
 SCF Done:  E(RB3LYP) =  -681.749181546     A.U. after   25 cycles
 SCF Done:  E(RB3LYP) =  -682.005374588     A.U. after   22 cycles
 SCF Done:  E(RB3LYP) =  -682.037644614     A.U. after   24 cycles
 SCF Done:  E(RB3LYP) =  -682.274222120     A.U. after   22 cycles
 SCF Done:  E(RB3LYP) =  -682.367183642     A.U. after   24 cycles
 SCF Done:  E(RB3LYP) =  -682.539260358     A.U. after   29 cycles
 SCF Done:  E(RB3LYP) =  -682.652425121     A.U. after   34 cycles
 SCF Done:  E(RB3LYP) =  -682.798185176     A.U. after   32 cycles
 SCF Done:  E(RB3LYP) =  -682.900224416     A.U. after   28 cycles
 SCF Done:  E(RB3LYP) =  -683.104716830     A.U. after   11 cycles
 SCF Done:  E(RB3LYP) =  -683.104718937     A.U. after   10 cycles
 SCF Done:  E(RB3LYP) =  -683.104720292     A.U. after   10 cycles
 SCF Done:  E(RB3LYP) =  -683.104721814     A.U. after   11 cycles
 SCF Done:  E(RB3LYP) =  -683.104723018     A.U. after   11 cycles
 SCF Done:  E(RB3LYP) =  -683.104723560     A.U. after    9 cycles
 SCF Done:  E(RB3LYP) =  -683.104723915     A.U. after    9 cycles
 SCF Done:  E(RB3LYP) =  -683.104724243     A.U. after    9 cycles
 SCF Done:  E(RB3LYP) =  -683.104724549     A.U. after    8 cycles
 Optimization completed.
    -- Stationary point found.
 Normal termination of Gaussian 16 at Sat May 20 03:45:31 2023.

 ----------------------------------------------------------------------
 #N Geom=AllCheck Guess=TCheck SCRF=Check GenChk RB3LYP/6-31G(2df,p) Fr
 eq
 ----------------------------------------------------------------------

 Structure from the checkpoint file:  "CC1dCCdCc2ccccccnn2NdN1.chk"
 -------------------
 Title Card Required
 -------------------
 Charge =  0 Multiplicity = 1

                         Standard orientation:
 ---------------------------------------------------------------------
 Center     Atomic      Atomic             Coordinates (Angstroms)
 Number     Number       Type             X           Y           Z
 ---------------------------------------------------------------------
      1          6           0       -6.690029   -0.643060    0.716670
      2          6           0       -5.637407   -0.143388   -0.187342
      3          6           0       -4.416788   -0.780823   -0.288112
      4          6           0       -3.236549   -0.054528   -0.369126
      5          6           0       -1.972757   -0.669950   -0.263355
      6          6           0       -0.732047   -0.079896   -0.188939
      7          6           0        0.500063   -0.804505   -0.214870
      8          6           0        1.757236   -0.322936   -0.018002
      9          6           0        2.929963   -1.139930   -0.075000
     10          6           0        4.174907   -0.657415    0.093743
     11          6           0        5.560471   -1.123020    0.092214
     12          6           0        5.949576    0.167503    0.228709
     13          7           0        4.618504    0.711714    0.348467
     14          7           0        0.247751    2.196549   -0.336186
     15          7           0       -0.663940    1.348483   -0.094165
     16          7           0       -1.482263    2.255189    0.250547
     17          1           0       -6.594084   -1.693040    1.042452
     18          1           0       -7.698281   -0.449010    0.336776
     19          1           0       -6.597143   -0.023406    1.625758
     20          1           0       -4.347937   -1.878701   -0.247865
     21          1           0       -3.304393    1.025178   -0.444503
     22          1           0       -1.961427   -1.758548   -0.273672
     23          1           0        0.378906   -1.869025   -0.404183
     24          1           0        1.894492    0.730232    0.206946
     25          1           0        2.819114   -2.203881   -0.268047
     26          1           0        4.339002    1.409918   -0.338144
     27          1           0        6.039113   -2.087426    0.120273
     28          1           0        6.872439    0.725845    0.304041
 ---------------------------------------------------------------------

 SCF Done:  E(RB3LYP) =  -683.104724549     A.U. after    3 cycles

 The electronic state is 1-A.
 Alpha  occ. eigenvalues --  -14.49634 -14.36570 -14.36457 -14.34992 -10.26268
 Alpha  occ. eigenvalues --  -10.24354 -10.24054 -10.22438 -10.21624 -10.21426
 Alpha  occ. eigenvalues --  -10.21189 -10.20975 -10.20609 -10.20299 -10.19865
 Alpha  occ. eigenvalues --  -10.19432  -1.13940  -0.97713  -0.87528  -0.83162
 Alpha  occ. eigenvalues --   -0.81030  -0.79689  -0.76410  -0.74456  -0.73053
 Alpha  occ. eigenvalues --   -0.70334  -0.65363  -0.61800  -0.58440  -0.55365
 Alpha  occ. eigenvalues --   -0.54871  -0.53825  -0.50493  -0.49245  -0.47835
 Alpha  occ. eigenvalues --   -0.46735  -0.45250  -0.44731  -0.43435  -0.42902
 Alpha  occ. eigenvalues --   -0.42437  -0.41622  -0.39608  -0.39376  -0.38646
 Alpha  occ. eigenvalues --   -0.37810  -0.37458  -0.36716  -0.35847  -0.33004
 Alpha  occ. eigenvalues --   -0.28557  -0.28001  -0.23764  -0.22655  -0.19619
 Alpha  occ. eigenvalues --   -0.18609
 Alpha virt. eigenvalues --   -0.12533  -0.05661  -0.05128  -0.04601   0.00584
 Alpha virt. eigenvalues --    0.04436   0.07786   0.08211   0.09398   0.10503
 Alpha virt. eigenvalues --    0.10964   0.11542   0.12133   0.14081   0.14184

 Mulliken charges:
               1
     1  C   -0.414729
     2  C   -0.066105
     3  C   -0.061247
     4  C   -0.096647
     5  C   -0.132826
     6  C    0.345295
     7  C   -0.146649
     8  C   -0.124970
     9  C   -0.247020
    10  C    0.416602
    11  C   -0.309918
    12  C    0.008012
    13  N   -0.392053
    14  N   -0.276929
    15  N    0.132349
    16  N   -0.276386
    17  H    0.112984
    18  H    0.145238
    19  H    0.171140
    20  H    0.088387
    21  H    0.159636
    22  H    0.108844
    23  H    0.100332
    24  H    0.148411
    25  H    0.101208
    26  H    0.246340
    27  H    0.121447
    28  H    0.139252
 Sum of Mulliken charges =  -0.00000

 Dipole moment (field-independent basis, Debye):
    X=              1.8525    Y=             -5.3625    Z=              0.0621  Tot=              5.6738
 Quadrupole moment (field-independent basis, Debye-Ang):
   XX=            -68.2152   YY=            -96.9343   ZZ=            -96.8248
   XY=              9.8376   XZ=             -9.4259   YZ=             -0.1859

  Exact polarizability: 678.613  26.390 147.932  -7.074   2.141  77.210
 Approx polarizability:1679.944  71.369 253.440 -14.836   9.554 133.684

                      1                      2                      3
                      A                      A                      A
 Frequencies --     25.7521                40.4603                58.0677
 Red. masses --      4.7977                 5.1295                 7.7491
 Frc consts  --      0.0019                 0.0049                 0.0154
 IR Inten    --      0.2115                 0.6923                 6.5364

                      4                      5                      6
                      A                      A                      A
 Frequencies --     63.9277                74.0987                90.1565
 Red. masses --      3.9557                 4.3377                 4.2183
 Frc consts  --      0.0095                 0.0140                 0.0202
 IR Inten    --      2.4047                 1.4687                 0.7196

                      7                      8                      9
                      A                      A                      A
 Frequencies --    116.0392               143.6213               171.3447
 Red. masses --      1.8451                 3.4488                 3.7975
 Frc consts  --      0.0146                 0.0419                 0.0657
 IR Inten    --     17.4453                 3.2648                 0.6026

                     10                     11                     12
                      A                      A                      A
 Frequencies --    187.7410               221.9057               238.9674
 Red. masses --      3.4173                 2.2747                 4.1107
 Frc consts  --      0.0710                 0.0660                 0.1383
 IR Inten    --     29.7506                10.7317                 5.7032

                     13                     14                     15
                      A                      A                      A
 Frequencies --    247.8343               260.9046               306.2970
 Red. masses --      3.4084                 2.3495                 3.4074
 Frc consts  --      0.1233                 0.0942                 0.1883
 IR Inten    --    156.7838                13.3826               143.3380

                     16                     17                     18
                      A                      A                      A
 Frequencies --    322.7705               339.2712               373.4743
 Red. masses --      3.4808                 4.1042                 5.0898
 Frc consts  --      0.2137                 0.2783                 0.4183
 IR Inten    --     26.8555                34.2761                 1.9673

                     19                     20                     21
                      A                      A                      A
 Frequencies --    396.4985               439.2202               467.9291
 Red. masses --      4.4964                 5.4619                 4.4494
 Frc consts  --      0.4165                 0.6208                 0.5740
 IR Inten    --     31.6811                20.4375                44.6941

                     22                     23                     24
                      A                      A                      A
 Frequencies --    519.3223               597.9745               640.8452
 Red. masses --      4.7758                 5.9391                 1.6190
 Frc consts  --      0.7589                 1.2512                 0.3917
 IR Inten    --     42.4332                33.5252                62.2048

                     25                     26                     27
                      A                      A                      A
 Frequencies --    674.6593               697.0336               729.4377
 Red. masses --      6.3666                 5.7333                 1.7278
 Frc consts  --      1.7074                 1.6412                 0.5416
 IR Inten    --      5.9984                17.3861                80.0753

                     28                     29                     30
                      A                      A                      A
 Frequencies --    770.4764               799.4285               807.6970
 Red. masses --      5.5913                 1.4928                 3.0241
 Frc consts  --      1.9556                 0.5621                 1.1624
 IR Inten    --     19.4505                 1.3568                 2.7744

                     31                     32                     33
                      A                      A                      A
 Frequencies --    842.8019               867.5078               878.2108
 Red. masses --      1.6832                 1.7146                 1.6421
 Frc consts  --      0.7044                 0.7603                 0.7462
 IR Inten    --      3.5147                39.8179               237.3763

                     34                     35                     36
                      A                      A                      A
 Frequencies --    887.3705               905.8475               924.9746
 Red. masses --      1.6371                 1.7344                 1.7442
 Frc consts  --      0.7595                 0.8385                 0.8792
 IR Inten    --    394.5877                24.4537                 2.0336

                     37                     38                     39
                      A                      A                      A
 Frequencies --    932.8060               951.7771              1002.8588
 Red. masses --      2.6535                 2.9912                 1.1277
 Frc consts  --      1.3604                 1.5965                 0.6682
 IR Inten    --      7.1731                67.3290               266.2384

                     40                     41                     42
                      A                      A                      A
 Frequencies --   1012.5536              1020.1426              1046.8541
 Red. masses --      1.7692                 1.1421                 1.3585
 Frc consts  --      1.0687                 0.7003                 0.8771
 IR Inten    --     36.1576                54.4545                 4.0433

                     43                     44                     45
                      A                      A                      A
 Frequencies --   1075.2718              1135.9730              1160.0175
 Red. masses --      1.7324                 2.1152                 1.8356
 Frc consts  --      1.1802                 1.6082                 1.4553
 IR Inten    --      1.2861                10.5905                 6.5747

                     46                     47                     48
                      A                      A                      A
 Frequencies --   1176.6051              1214.1623              1236.5802
 Red. masses --      2.2481                 2.4027                 2.4010
 Frc consts  --      1.8337                 2.0869                 2.1632
 IR Inten    --     68.3332                 4.9168               133.9865

                     49                     50                     51
                      A                      A                      A
 Frequencies --   1260.1265              1272.0286              1281.4822
 Red. masses --      1.6304                 1.8282                 1.4069
 Frc consts  --      1.5253                 1.7428                 1.3612
 IR Inten    --     18.1160                 8.8478                12.0829

                     52                     53                     54
                      A                      A                      A
 Frequencies --   1290.1882              1321.5579              1329.2436
 Red. masses --      2.3438                 2.0010                 1.7866
 Frc consts  --      2.2986                 2.0591                 1.8598
 IR Inten    --      6.2570                27.9554                11.5787

                     55                     56                     57
                      A                      A                      A
 Frequencies --   1340.5226              1342.4068              1355.3885
 Red. masses --      1.1942                 1.6502                 1.9827
 Frc consts  --      1.2644                 1.7521                 2.1460
 IR Inten    --     15.3554                46.2172                12.9943

                     58                     59                     60
                      A                      A                      A
 Frequencies --   1410.4562              1426.4853              1486.6900
 Red. masses --      1.7236                 1.3566                 1.1165
 Frc consts  --      2.0203                 1.6264                 1.4540
 IR Inten    --     97.3851                24.0671               116.7305

                     61                     62                     63
                      A                      A                      A
 Frequencies --   1523.4438              1551.3539              1564.7277
 Red. masses --      3.2265                 4.6881                11.4921
 Frc consts  --      4.4119                 6.6477                16.5778
 IR Inten    --    238.6363                19.4469                75.0550

                     64                     65                     66
                      A                      A                      A
 Frequencies --   1596.1448              1644.6818              1717.6276
 Red. masses --      5.7952                 4.6248                 8.2884
 Frc consts  --      8.6988                 7.3707                14.4071
 IR Inten    --     96.9517                86.7476               260.8751

                     67                     68                     69
                      A                      A                      A
 Frequencies --   2944.9819              2990.1077              3010.8850
 Red. masses --      1.0468                 1.0839                 1.0893
 Frc consts  --      5.3492                 5.7099                 5.8179
 IR Inten    --    116.2668                70.9029               108.5582

                     70                     71                     72
                      A                      A                      A
 Frequencies --   3081.3506              3141.8379              3149.1048
 Red. masses --      1.0929                 1.0873                 1.0881
 Frc consts  --      6.1139                 6.3235                 6.3574
 IR Inten    --     33.5323                 0.8613                18.5898

                     73                     74                     75
                      A                      A                      A
 Frequencies --   3160.7231              3181.8040              3198.1161
 Red. masses --      1.0892                 1.0875                 1.0889
 Frc consts  --      6.4111                 6.4866                 6.5617
 IR Inten    --     12.1865                 5.8537                 0.8518

                     76                     77                     78
                      A                      A                      A
 Frequencies --   3233.9145              3282.7154              3484.4084
 Red. masses --      1.0920                 1.1117                 1.0751
 Frc consts  --      6.7284                 7.0585                 7.6904
 IR Inten    --      0.6709                 6.4102                 4.2522

 - Thermochemistry -
 -------------------
 Temperature   298.150 Kelvin.  Pressure   1.00000 Atm.
 Atom     1 has atomic number  6 and mass  12.00000

 Molecular mass:   212.10620 amu.
 Principal axes and moments of inertia in atomic units:
                           1         2         3
     Eigenvalues --  1006.24139********************
           X            0.99997   0.00565  -0.00526
           Y           -0.00566   0.99998  -0.00257
           Z            0.00524   0.00260   0.99998
 This molecule is an asymmetric top.
 Rotational symmetry number  1.
 Warning -- assumption of classical behavior for rotation
           may cause significant error
 Rotational temperatures (Kelvin)      0.08608     0.00774     0.00719
 Rotational constants (GHZ):           1.79355     0.16131     0.14982
 Zero-point vibrational energy     554289.6 (Joules/Mol)
                                  132.47838 (Kcal/Mol)
 Warning -- explicit consideration of  23 degrees of freedom as
           vibrations may cause significant error
 Vibrational temperatures:     37.05    58.21    83.55    91.98   106.61
          (Kelvin)            129.72   166.95   206.64   246.53   270.12
                              319.27   343.82   356.58   375.38   440.69
                              464.39   488.14   537.35   570.47   631.94
                              673.25   747.19   860.35   922.03   970.68
                             1002.88  1049.50  1108.54  1150.20  1162.10
                             1212.60  1248.15  1263.55  1276.73  1303.31
                             1330.83  1342.10  1369.40  1442.89  1456.84
                             1467.76  1506.19  1547.08  1634.41  1669.01
                             1692.87  1746.91  1779.16  1813.04  1830.17
                             1843.77  1856.29  1901.43  1912.49  1928.71
                             1931.42  1950.10  2029.33  2052.39  2139.02
                             2191.90  2232.05  2251.29  2296.50  2366.33
                             2471.28  4237.17  4302.10  4331.99  4433.38
                             4520.40  4530.86  4547.58  4577.91  4601.38
                             4652.88  4723.10  5013.29

 Zero-point correction=                           0.211118 (Hartree/Particle)
 Thermal correction to Energy=                    0.227659
 Thermal correction to Enthalpy=                  0.228603
 Thermal correction to Gibbs Free Energy=         0.165165
 Sum of electronic and zero-point Energies=           -682.893607
 Sum of electronic and thermal Energies=              -682.877066
 Sum of electronic and thermal Enthalpies=            -682.876122
 Sum of electronic and thermal Free Energies=         -682.939560

                     E (Thermal)             CV                S
                      KCal/Mol        Cal/Mol-Kelvin    Cal/Mol-Kelvin
 Total                  142.858             59.469            133.517
 Electronic               0.000              0.000              0.000
 Translational            0.889              2.981             41.959
 Rotational               0.889              2.981             33.272
 Vibrational            141.081             53.507             58.286
 Vibration     1          0.593              1.985              6.132
 Vibration     2          0.594              1.981              5.236
 Vibration     3          0.596              1.974              4.522
 Vibration     4          0.597              1.972              4.332
 Vibration     5          0.599              1.966              4.041
 Vibration     6          0.602              1.956              3.657
 Vibration     7          0.608              1.936              3.165
 Vibration     8          0.616              1.910              2.755
 Vibration     9          0.626              1.878              2.421
 Vibration    10          0.632              1.857              2.250
 Vibration    11          0.648              1.808              1.943
 Vibration    12          0.657              1.781              1.811
 Vibration    13          0.661              1.766              1.746
 Vibration    14          0.669              1.744              1.656
 Vibration    15          0.697              1.662              1.382
 Vibration    16          0.708              1.630              1.296
 Vibration    17          0.719              1.597              1.216
 Vibration    18          0.745              1.527              1.065
 Vibration    19          0.763              1.478              0.976
 Vibration    20          0.799              1.385              0.829
 Vibration    21          0.825              1.321              0.743
 Vibration    22          0.874              1.207              0.612
 Vibration    23          0.956              1.036              0.453

                           ! Non-Optimized Parameters !
 Normal termination of Gaussian 16 at Sat May 20 05:17:17 2023.
