 Gaussian 16, Revision A.03,
 Gaussian 16:  ES64L-G16RevA.03 25-Dec-2016

 -----------------------------
 # opt freq b3lyp/6-31g(2df,p)
 -----------------------------

 -------------------
 Title Card Required
 -------------------
 Symbolic Z-matrix:
 Charge =  0 Multiplicity = 1

 SCF Done:  E(RB3LYP) =  -1184.63636943     A.U. after   18 cycles
 SCF Done:  E(RB3LYP) =  -1184.68827580     A.U. after   14 cycles
 SCF Done:  E(RB3LYP) =  -1184.73743253     A.U. after   14 cycles
 SCF Done:  E(RB3LYP) =  -1184.74792196     A.U. after   13 cycles
 SCF Done:  E(RB3LYP) =  -1184.75381162     A.U. after   14 cycles
 SCF Done:  E(RB3LYP) =  -1184.75574223     A.U. after   14 cycles
 SCF Done:  E(RB3LYP) =  -1184.75681254     A.U. after   14 cycles
 SCF Done:  E(RB3LYP) =  -1184.75740717     A.U. after   12 cycles
 SCF Done:  E(RB3LYP) =  -1184.75766497     A.U. after   12 cycles
 SCF Done:  E(RB3LYP) =  -1184.75771455     A.U. after   11 cycles
 SCF Done:  E(RB3LYP) =  -1184.75772751     A.U. after   10 cycles
 SCF Done:  E(RB3LYP) =  -1184.75773129     A.U. after   10 cycles
 SCF Done:  E(RB3LYP) =  -1184.75773272     A.U. after    9 cycles
 SCF Done:  E(RB3LYP) =  -1184.75773336     A.U. after    9 cycles
 SCF Done:  E(RB3LYP) =  -1184.75773355     A.U. after    8 cycles
 Optimization completed.
    -- Stationary point found.
 Normal termination of Gaussian 16 at Fri May 19 13:11:41 2023.

 ----------------------------------------------------------------------
 #N Geom=AllCheck Guess=TCheck SCRF=Check GenChk RB3LYP/6-31G(2df,p) Fr
 eq
 ----------------------------------------------------------------------

 Structure from the checkpoint file:  "CC1dCCdCC2dCC3dCCdCCdCS3dNOCdCC2dC1.chk"
 -------------------
 Title Card Required
 -------------------
 Charge =  0 Multiplicity = 1

                         Standard orientation:
 ---------------------------------------------------------------------
 Center     Atomic      Atomic             Coordinates (Angstroms)
 Number     Number       Type             X           Y           Z
 ---------------------------------------------------------------------
      1          6           0        5.771220    0.113854    0.525295
      2          6           0        4.354045   -0.245895    0.145029
      3          6           0        4.062068   -1.525250   -0.233715
      4          6           0        2.809606   -2.051865   -0.690477
      5          6           0        1.556664   -1.565899   -0.489758
      6          6           0        1.204322   -0.381740    0.252224
      7          6           0        0.007465   -0.191529    0.916565
      8          6           0       -1.326371   -0.658292    0.638761
      9          6           0       -1.739895   -1.894966    0.231124
     10          6           0       -2.993574   -2.376335   -0.244922
     11          6           0       -4.224038   -1.792441   -0.326260
     12          6           0       -4.661572   -0.494991    0.083613
     13          6           0       -3.991743    0.592340    0.525568
     14         16           0       -2.278912    0.940823    0.573170
     15          7           0       -2.105146    1.665678   -0.921434
     16          8           0       -0.999880    2.675455   -0.777701
     17          6           0        0.136951    1.951143   -0.831721
     18          6           0        1.251672    2.074855   -0.086055
     19          6           0        2.059378    0.834381    0.082099
     20          6           0        3.421450    0.849135    0.083719
     21          1           0        6.438944   -0.748356    0.464591
     22          1           0        5.813054    0.507217    1.548007
     23          1           0        6.165616    0.899823   -0.129817
     24          1           0        4.890870   -2.228960   -0.254229
     25          1           0        2.875673   -3.008136   -1.204611
     26          1           0        0.724171   -2.162971   -0.857833
     27          1           0       -0.012599    0.742431    1.466286
     28          1           0       -0.976388   -2.666444    0.309901
     29          1           0       -2.957902   -3.413047   -0.571624
     30          1           0       -5.018262   -2.426260   -0.709956
     31          1           0       -5.742845   -0.365247    0.061731
     32          1           0       -4.538141    1.484021    0.811558
     33          1           0        0.027528    1.076052   -1.466651
     34          1           0        1.441541    2.940351    0.540760
     35          1           0        3.880530    1.833960    0.006280
 ---------------------------------------------------------------------

 SCF Done:  E(RB3LYP) =  -1184.75773355     A.U. after    1 cycles

 The electronic state is 1-A.
 Alpha  occ. eigenvalues --  -88.96401 -19.16788 -14.33933 -10.22913 -10.22207
 Alpha  occ. eigenvalues --  -10.21973 -10.21614 -10.21533 -10.21227 -10.21184
 Alpha  occ. eigenvalues --  -10.20448 -10.20366 -10.20320 -10.20248 -10.19767
 Alpha  occ. eigenvalues --  -10.19644 -10.19467 -10.19134 -10.18507 -10.16887
 Alpha  occ. eigenvalues --   -8.01487  -5.97861  -5.97758  -5.97293  -1.05179
 Alpha  occ. eigenvalues --   -0.88471  -0.86552  -0.82660  -0.81862  -0.79812
 Alpha  occ. eigenvalues --   -0.79130  -0.75301  -0.73806  -0.71402  -0.69812
 Alpha  occ. eigenvalues --   -0.66661  -0.66079  -0.62407  -0.60556  -0.56567
 Alpha  occ. eigenvalues --   -0.54792  -0.54358  -0.53147  -0.51739  -0.51031
 Alpha  occ. eigenvalues --   -0.48955  -0.47940  -0.45961  -0.45079  -0.43942
 Alpha  occ. eigenvalues --   -0.43590  -0.43179  -0.42886  -0.42372  -0.41369
 Alpha  occ. eigenvalues --   -0.39870  -0.38796  -0.38518  -0.37564  -0.37047
 Alpha  occ. eigenvalues --   -0.36188  -0.35560  -0.35033  -0.34363  -0.33470
 Alpha  occ. eigenvalues --   -0.32117  -0.30677  -0.28416  -0.27984  -0.26268
 Alpha  occ. eigenvalues --   -0.24954  -0.21769  -0.19752  -0.17596
 Alpha virt. eigenvalues --   -0.08591  -0.06398  -0.03923  -0.01018   0.01634
 Alpha virt. eigenvalues --    0.03978   0.05301   0.06891   0.08627   0.09164
 Alpha virt. eigenvalues --    0.09550   0.10543   0.10858   0.11462   0.11639

 Mulliken charges:
               1
     1  C   -0.481771
     2  C    0.253665
     3  C   -0.174656
     4  C   -0.070998
     5  C   -0.160679
     6  C    0.101085
     7  C   -0.244005
     8  C    0.103473
     9  C   -0.178446
    10  C   -0.058906
    11  C   -0.109303
    12  C   -0.049081
    13  C   -0.192541
    14  S    0.254737
    15  N   -0.253037
    16  O   -0.245927
    17  C    0.155330
    18  C   -0.327485
    19  C    0.222175
    20  C   -0.215401
    21  H    0.125439
    22  H    0.137166
    23  H    0.136069
    24  H    0.092482
    25  H    0.101378
    26  H    0.102704
    27  H    0.122362
    28  H    0.104610
    29  H    0.098365
    30  H    0.097614
    31  H    0.112493
    32  H    0.137380
    33  H    0.105795
    34  H    0.103722
    35  H    0.094195
 Sum of Mulliken charges =  -0.00000

 Dipole moment (field-independent basis, Debye):
    X=              1.6738    Y=             -3.4442    Z=              1.4435  Tot=              4.0924
 Quadrupole moment (field-independent basis, Debye-Ang):
   XX=            -98.1215   YY=           -121.0575   ZZ=           -127.3627
   XY=              5.1506   XZ=             -2.7860   YZ=              8.3441

  Exact polarizability: 479.435  15.427 226.650   0.487  15.175 115.771
 Approx polarizability: 881.143  32.413 450.163  -4.837  20.876 230.150

                      1                      2                      3
                      A                      A                      A
 Frequencies --     48.1016                51.0831                78.7718
 Red. masses --      4.1462                 4.0969                 5.2206
 Frc consts  --      0.0057                 0.0063                 0.0191
 IR Inten    --      1.2248                 1.6835                 0.6551

                      4                      5                      6
                      A                      A                      A
 Frequencies --     82.1098               127.2820               139.5939
 Red. masses --      4.8529                 3.0074                 1.3287
 Frc consts  --      0.0193                 0.0287                 0.0153
 IR Inten    --      0.5886                 1.6779                 0.6957

                      7                      8                      9
                      A                      A                      A
 Frequencies --    172.1657               190.6579               201.9991
 Red. masses --      3.7866                 4.3119                 3.7250
 Frc consts  --      0.0661                 0.0923                 0.0896
 IR Inten    --      3.5483                 1.5386                 1.3664

                     10                     11                     12
                      A                      A                      A
 Frequencies --    221.6063               245.4635               251.9742
 Red. masses --      3.9053                 3.3597                 3.9101
 Frc consts  --      0.1130                 0.1193                 0.1463
 IR Inten    --      9.5595                15.6296                 1.0837

                     13                     14                     15
                      A                      A                      A
 Frequencies --    287.1940               295.8397               315.8567
 Red. masses --      3.1789                 5.5668                 5.1352
 Frc consts  --      0.1545                 0.2871                 0.3018
 IR Inten    --      4.0945                 6.2426                 1.4916

                     16                     17                     18
                      A                      A                      A
 Frequencies --    352.0902               360.1430               366.2410
 Red. masses --      4.4912                 4.7470                 6.1158
 Frc consts  --      0.3280                 0.3628                 0.4833
 IR Inten    --      1.7784                 1.8834                 0.3446

                     19                     20                     21
                      A                      A                      A
 Frequencies --    391.5541               428.9992               438.0325
 Red. masses --      5.9261                 4.7139                 4.0973
 Frc consts  --      0.5353                 0.5111                 0.4632
 IR Inten    --      1.9490                 2.1309                 7.0358

                     22                     23                     24
                      A                      A                      A
 Frequencies --    449.2218               488.7606               527.8365
 Red. masses --      6.1733                 4.4515                 5.2144
 Frc consts  --      0.7340                 0.6265                 0.8560
 IR Inten    --      8.0758                 1.5025                22.7554

                     25                     26                     27
                      A                      A                      A
 Frequencies --    557.0030               570.3558               587.1471
 Red. masses --      3.9401                 6.0991                 3.2705
 Frc consts  --      0.7202                 1.1690                 0.6643
 IR Inten    --     10.1686                12.8551                 8.3564

                     28                     29                     30
                      A                      A                      A
 Frequencies --    609.7178               615.7407               632.1617
 Red. masses --      4.5497                 2.8063                 5.7383
 Frc consts  --      0.9965                 0.6269                 1.3511
 IR Inten    --     10.4356                11.2676                 1.6156

                     31                     32                     33
                      A                      A                      A
 Frequencies --    682.0382               699.5916               712.4612
 Red. masses --      2.1689                 2.2163                 4.4780
 Frc consts  --      0.5944                 0.6391                 1.3392
 IR Inten    --     14.0121                28.4882                21.3562

                     34                     35                     36
                      A                      A                      A
 Frequencies --    727.5354               736.2516               756.7546
 Red. masses --      6.6158                 6.0227                 5.7569
 Frc consts  --      2.0632                 1.9235                 1.9425
 IR Inten    --     12.7133                 5.2242                15.8459

                     37                     38                     39
                      A                      A                      A
 Frequencies --    773.0606               778.3855               791.2930
 Red. masses --      5.8941                 2.3127                 1.3347
 Frc consts  --      2.0754                 0.8256                 0.4924
 IR Inten    --     15.8175                23.7563                18.2849

                     40                     41                     42
                      A                      A                      A
 Frequencies --    802.2927               842.8590               876.4835
 Red. masses --      1.7144                 2.9022                 3.6592
 Frc consts  --      0.6502                 1.2148                 1.6563
 IR Inten    --     40.7138                 2.3957                 5.4295

                     43                     44                     45
                      A                      A                      A
 Frequencies --    895.1626               915.6775               918.5988
 Red. masses --      1.5247                 1.4646                 1.7288
 Frc consts  --      0.7199                 0.7235                 0.8595
 IR Inten    --     31.4117                21.8660                57.5673

                     46                     47                     48
                      A                      A                      A
 Frequencies --    932.7098               941.3114               952.5808
 Red. masses --      3.2850                 2.5661                 1.3479
 Frc consts  --      1.6837                 1.3396                 0.7206
 IR Inten    --      1.2807                 2.0669                20.7470

                     49                     50                     51
                      A                      A                      A
 Frequencies --    980.4402               998.7611               999.2166
 Red. masses --      1.3459                 1.5124                 1.3729
 Frc consts  --      0.7623                 0.8889                 0.8076
 IR Inten    --      0.5449                 3.7370                 0.4827

                     52                     53                     54
                      A                      A                      A
 Frequencies --   1007.4196              1029.1562              1043.8108
 Red. masses --      1.3395                 1.3246                 2.9474
 Frc consts  --      0.8010                 0.8266                 1.8920
 IR Inten    --      2.9941                23.9395                11.4350

                     55                     56                     57
                      A                      A                      A
 Frequencies --   1063.1134              1077.3213              1104.0077
 Red. masses --      1.5796                 2.2600                 2.7744
 Frc consts  --      1.0518                 1.5455                 1.9924
 IR Inten    --      4.5263                 3.0249                 7.4957

                     58                     59                     60
                      A                      A                      A
 Frequencies --   1152.7034              1162.5598              1201.4517
 Red. masses --      2.8074                 4.8404                 1.8154
 Frc consts  --      2.1978                 3.8544                 1.5439
 IR Inten    --      4.7550                13.2883                 7.4352

                     61                     62                     63
                      A                      A                      A
 Frequencies --   1231.1205              1255.7609              1259.4934
 Red. masses --      2.1431                 1.7233                 1.1496
 Frc consts  --      1.9138                 1.6011                 1.0744
 IR Inten    --      2.2445                18.0956                26.8599

                     64                     65                     66
                      A                      A                      A
 Frequencies --   1271.1850              1308.2849              1349.0190
 Red. masses --      1.2607                 1.1093                 1.3953
 Frc consts  --      1.2003                 1.1186                 1.4960
 IR Inten    --     21.7908                11.1650                 1.9063

                     67                     68                     69
                      A                      A                      A
 Frequencies --   1372.6988              1381.3157              1392.5611
 Red. masses --      1.4041                 1.3113                 1.3951
 Frc consts  --      1.5588                 1.4742                 1.5940
 IR Inten    --     19.6743                14.6926                15.7518

                     70                     71                     72
                      A                      A                      A
 Frequencies --   1397.3295              1411.8693              1418.1860
 Red. masses --      1.5807                 1.2393                 1.8188
 Frc consts  --      1.8184                 1.4555                 2.1552
 IR Inten    --     94.6648                 1.0886                 7.2443

                     73                     74                     75
                      A                      A                      A
 Frequencies --   1478.3429              1480.3181              1484.4904
 Red. masses --      1.0488                 1.8033                 1.6343
 Frc consts  --      1.3506                 2.3282                 2.1220
 IR Inten    --     12.0326               181.4502               276.3403

                     76                     77                     78
                      A                      A                      A
 Frequencies --   1494.2123              1497.9391              1549.4011
 Red. masses --      1.9825                 1.5714                 3.7221
 Frc consts  --      2.6079                 2.0774                 5.2646
 IR Inten    --    240.0815               280.9047                 6.1220

                     79                     80                     81
                      A                      A                      A
 Frequencies --   1568.8599              1620.4833              1631.7944
 Red. masses --      6.6051                 6.3717                 6.1197
 Frc consts  --      9.5786                 9.8582                 9.6009
 IR Inten    --     34.2570               192.2665                 5.6818

                     82                     83                     84
                      A                      A                      A
 Frequencies --   1639.4672              1649.4115              1664.8791
 Red. masses --      5.2945                 4.3894                 5.0307
 Frc consts  --      8.3846                 7.0358                 8.2157
 IR Inten    --     90.5126                 2.8649                 7.5107

                     85                     86                     87
                      A                      A                      A
 Frequencies --   3025.4496              3076.1139              3121.4777
 Red. masses --      1.0379                 1.0990                 1.0993
 Frc consts  --      5.5975                 6.1271                 6.3108
 IR Inten    --     39.4557                13.9622                12.3456

                     88                     89                     90
                      A                      A                      A
 Frequencies --   3128.3222              3131.3478              3131.9945
 Red. masses --      1.0829                 1.0866                 1.0835
 Frc consts  --      6.2441                 6.2774                 6.2623
 IR Inten    --      3.9935                17.6776                17.4981

                     91                     92                     93
                      A                      A                      A
 Frequencies --   3137.7590              3147.1782              3152.7491
 Red. masses --      1.0824                 1.0869                 1.0865
 Frc consts  --      6.2791                 6.3431                 6.3631
 IR Inten    --      8.8737                10.1495                 5.4627

                     94                     95                     96
                      A                      A                      A
 Frequencies --   3153.1997              3162.8439              3165.6270
 Red. masses --      1.0879                 1.0918                 1.0832
 Frc consts  --      6.3728                 6.4348                 6.3953
 IR Inten    --      3.9340                34.0309                 5.8565

                     97                     98                     99
                      A                      A                      A
 Frequencies --   3173.2864              3173.3677              3194.5749
 Red. masses --      1.0888                 1.0913                 1.0905
 Frc consts  --      6.4598                 6.4747                 6.5571
 IR Inten    --      3.5513                29.1142                 0.3375

 - Thermochemistry -
 -------------------
 Temperature   298.150 Kelvin.  Pressure   1.00000 Atm.
 Atom     1 has atomic number  6 and mass  12.00000

 Molecular mass:   281.08744 amu.
 Principal axes and moments of inertia in atomic units:
                           1         2         3
     Eigenvalues --  2557.721699253.05659**********
           X            0.99997   0.00720   0.00319
           Y           -0.00727   0.99975   0.02108
           Z           -0.00303  -0.02111   0.99977
 This molecule is an asymmetric top.
 Rotational symmetry number  1.
 Warning -- assumption of classical behavior for rotation
           may cause significant error
 Rotational temperatures (Kelvin)      0.03386     0.00936     0.00774
 Rotational constants (GHZ):           0.70560     0.19504     0.16120
 Zero-point vibrational energy     714908.9 (Joules/Mol)
                                  170.86732 (Kcal/Mol)
 Warning -- explicit consideration of  29 degrees of freedom as
           vibrations may cause significant error
 Vibrational temperatures:     69.21    73.50   113.34   118.14   183.13
          (Kelvin)            200.84   247.71   274.31   290.63   318.84
                              353.17   362.53   413.21   425.65   454.45
                              506.58   518.17   526.94   563.36   617.23
                              630.23   646.33   703.22   759.44   801.40
                              820.61   844.77   877.25   885.91   909.54
                              981.30  1006.56  1025.07  1046.76  1059.30
                             1088.80  1112.26  1119.92  1138.49  1154.32
                             1212.69  1261.06  1287.94  1317.46  1321.66
                             1341.96  1354.34  1370.55  1410.63  1436.99
                             1437.65  1449.45  1480.73  1501.81  1529.58
                             1550.03  1588.42  1658.48  1672.66  1728.62
                             1771.31  1806.76  1812.13  1828.95  1882.33
                             1940.94  1975.01  1987.41  2003.58  2010.45
                             2031.36  2040.45  2127.01  2129.85  2135.85
                             2149.84  2155.20  2229.24  2257.24  2331.51
                             2347.79  2358.83  2373.14  2395.39  4352.95
                             4425.84  4491.11  4500.96  4505.31  4506.24
                             4514.54  4528.09  4536.10  4536.75  4550.63
                             4554.63  4565.65  4565.77  4596.28

 Zero-point correction=                           0.272294 (Hartree/Particle)
 Thermal correction to Energy=                    0.289703
 Thermal correction to Enthalpy=                  0.290647
 Thermal correction to Gibbs Free Energy=         0.227806
 Sum of electronic and zero-point Energies=          -1184.485439
 Sum of electronic and thermal Energies=             -1184.468031
 Sum of electronic and thermal Enthalpies=           -1184.467087
 Sum of electronic and thermal Free Energies=        -1184.529927

                     E (Thermal)             CV                S
                      KCal/Mol        Cal/Mol-Kelvin    Cal/Mol-Kelvin
 Total                  181.791             70.118            132.259
 Electronic               0.000              0.000              0.000
 Translational            0.889              2.981             42.799
 Rotational               0.889              2.981             33.937
 Vibrational            180.014             64.156             55.523
 Vibration     1          0.595              1.978              4.894
 Vibration     2          0.595              1.977              4.775
 Vibration     3          0.600              1.963              3.921
 Vibration     4          0.600              1.961              3.840
 Vibration     5          0.611              1.926              2.987
 Vibration     6          0.615              1.914              2.809
 Vibration     7          0.626              1.877              2.412
 Vibration     8          0.634              1.853              2.221
 Vibration     9          0.639              1.837              2.115
 Vibration    10          0.648              1.808              1.946
 Vibration    11          0.660              1.770              1.763
 Vibration    12          0.664              1.759              1.717
 Vibration    13          0.684              1.697              1.490
 Vibration    14          0.690              1.681              1.440
 Vibration    15          0.703              1.643              1.331
 Vibration    16          0.729              1.571              1.157
 Vibration    17          0.735              1.554              1.121
 Vibration    18          0.739              1.542              1.095
 Vibration    19          0.759              1.488              0.994
 Vibration    20          0.790              1.407              0.862
 Vibration    21          0.798              1.387              0.833
 Vibration    22          0.808              1.363              0.798
 Vibration    23          0.845              1.275              0.687
 Vibration    24          0.883              1.188              0.592
 Vibration    25          0.913              1.124              0.530
 Vibration    26          0.926              1.095              0.504
 Vibration    27          0.944              1.059              0.472
 Vibration    28          0.969              1.011              0.433
 Vibration    29          0.975              0.999              0.423

 Optimization completed.
    -- Stationary point found.
 Normal termination of Gaussian 16 at Fri May 19 19:14:04 2023.
