 Gaussian 16, Revision A.03,
 Gaussian 16:  ES64L-G16RevA.03 25-Dec-2016

 -----------------------------
 # opt freq b3lyp/6-31g(2df,p)
 -----------------------------

 -------------------
 Title Card Required
 -------------------
 Symbolic Z-matrix:
 Charge =  0 Multiplicity = 1

 SCF Done:  E(RB3LYP) =  -977.009949872     A.U. after   32 cycles
 SCF Done:  E(RB3LYP) =  -977.141158276     A.U. after   25 cycles
 SCF Done:  E(RB3LYP) =  -977.314014963     A.U. after   23 cycles
 SCF Done:  E(RB3LYP) =  -977.466970086     A.U. after   29 cycles
 SCF Done:  E(RB3LYP) =  -977.554870522     A.U. after   23 cycles
 SCF Done:  E(RB3LYP) =  -977.536979735     A.U. after   30 cycles
 SCF Done:  E(RB3LYP) =  -977.699137426     A.U. after   21 cycles
 SCF Done:  E(RB3LYP) =  -977.747847892     A.U. after   34 cycles
 SCF Done:  E(RB3LYP) =  -977.822071364     A.U. after   30 cycles
 SCF Done:  E(RB3LYP) =  -977.849074905     A.U. after   23 cycles
 SCF Done:  E(RB3LYP) =  -977.949942643     A.U. after   12 cycles
 SCF Done:  E(RB3LYP) =  -977.949956693     A.U. after   13 cycles
 SCF Done:  E(RB3LYP) =  -977.949965993     A.U. after   12 cycles
 SCF Done:  E(RB3LYP) =  -977.949974226     A.U. after   13 cycles
 SCF Done:  E(RB3LYP) =  -977.949982748     A.U. after   13 cycles
 SCF Done:  E(RB3LYP) =  -977.949985224     A.U. after   12 cycles
 SCF Done:  E(RB3LYP) =  -977.949986217     A.U. after   10 cycles
 SCF Done:  E(RB3LYP) =  -977.949986776     A.U. after    9 cycles
 SCF Done:  E(RB3LYP) =  -977.949986921     A.U. after    9 cycles
 Optimization completed.
    -- Stationary point found.
 Normal termination of Gaussian 16 at Sat May 20 13:09:17 2023.

 ----------------------------------------------------------------------
 #N Geom=AllCheck Guess=TCheck SCRF=Check GenChk RB3LYP/6-31G(2df,p) Fr
 eq
 ----------------------------------------------------------------------

 Structure from the checkpoint file:  "CC1dCCdC2CdCCdC1CdCCdCCdCS2.chk"
 -------------------
 Title Card Required
 -------------------
 Charge =  0 Multiplicity = 1

                         Standard orientation:
 ---------------------------------------------------------------------
 Center     Atomic      Atomic             Coordinates (Angstroms)
 Number     Number       Type             X           Y           Z
 ---------------------------------------------------------------------
      1          6           0        4.566382   -2.432169   -0.696325
      2          6           0        3.664227   -1.478708    0.051764
      3          6           0        2.223937   -1.706707    0.028361
      4          6           0        1.252650   -0.746122   -0.049964
      5          6           0        1.256644    0.677735   -0.221438
      6          6           0        2.281941    1.711976   -0.314461
      7          6           0        3.512524    1.857296    0.234828
      8          6           0        4.139806    0.839543    1.084608
      9          6           0        4.071470   -0.398166    0.676037
     10          6           0       -6.341646   -1.868234    0.250741
     11          6           0       -6.412938   -0.525341    0.320484
     12          6           0       -5.249866    0.215511   -0.097500
     13          6           0       -3.941041   -0.064729    0.231975
     14          6           0       -2.844436    0.637276   -0.292922
     15          6           0       -1.545714    0.470449    0.133788
     16         16           0       -0.283514    1.460246   -0.450997
     17          1           0        4.473528   -3.446374   -0.289316
     18          1           0        5.612043   -2.128673   -0.622101
     19          1           0        4.289314   -2.481735   -1.754998
     20          1           0        1.884853   -2.737761   -0.055439
     21          1           0        0.253183   -1.165709   -0.114343
     22          1           0        1.918527    2.600488   -0.834541
     23          1           0        4.008492    2.816451    0.108923
     24          1           0        4.545356    1.129851    2.051347
     25          1           0       -5.377834   -2.391364    0.301880
     26          1           0       -7.364158    0.001789    0.395483
     27          1           0       -5.413669    1.036703   -0.800444
     28          1           0       -3.750258   -0.845451    0.964917
     29          1           0       -3.042485    1.367667   -1.075694
     30          1           0       -1.304300   -0.257489    0.900429
 ---------------------------------------------------------------------

 SCF Done:  E(RB3LYP) =  -977.949986921     A.U. after    1 cycles

 The electronic state is 1-A.
 Alpha  occ. eigenvalues --  -88.92863 -10.24815 -10.22590 -10.21470 -10.21414
 Alpha  occ. eigenvalues --  -10.21357 -10.21057 -10.20929 -10.20925 -10.20601
 Alpha  occ. eigenvalues --  -10.20535 -10.20187 -10.19776 -10.19277 -10.17631
 Alpha  occ. eigenvalues --  -10.16733  -7.98942  -5.95307  -5.94924  -5.94809
 Alpha  occ. eigenvalues --   -0.87519  -0.84696  -0.82334  -0.81028  -0.78867
 Alpha  occ. eigenvalues --   -0.75297  -0.73758  -0.70234  -0.67439  -0.65771
 Alpha  occ. eigenvalues --   -0.60913  -0.59225  -0.57185  -0.55330  -0.52557
 Alpha  occ. eigenvalues --   -0.50818  -0.49204  -0.48152  -0.47056  -0.46359
 Alpha  occ. eigenvalues --   -0.43882  -0.43705  -0.42581  -0.41706  -0.40665
 Alpha  occ. eigenvalues --   -0.40078  -0.39500  -0.38428  -0.37496  -0.36749
 Alpha  occ. eigenvalues --   -0.35894  -0.35058  -0.33585  -0.30827  -0.30065
 Alpha  occ. eigenvalues --   -0.28192  -0.25175  -0.24044  -0.20436  -0.15336
 Alpha virt. eigenvalues --   -0.11783  -0.05596  -0.04358   0.02439   0.02894
 Alpha virt. eigenvalues --    0.03709   0.03933   0.06283   0.07568   0.08830
 Alpha virt. eigenvalues --    0.10174   0.10897   0.11497   0.12600   0.14162

 Mulliken charges:
               1
     1  C   -0.478457
     2  C    0.032013
     3  C   -0.165390
     4  C   -0.097663
     5  C    0.126496
     6  C   -0.115998
     7  C   -0.106204
     8  C   -0.327961
     9  C    0.259115
    10  C   -0.303121
    11  C   -0.077798
    12  C   -0.064155
    13  C   -0.070216
    14  C   -0.062711
    15  C   -0.163874
    16  S    0.033226
    17  H    0.135295
    18  H    0.135548
    19  H    0.138802
    20  H    0.102302
    21  H    0.103830
    22  H    0.112823
    23  H    0.106874
    24  H    0.125557
    25  H    0.108997
    26  H    0.090029
    27  H    0.095119
    28  H    0.091604
    29  H    0.103903
    30  H    0.132016
 Sum of Mulliken charges =  -0.00000

 Dipole moment (field-independent basis, Debye):
    X=              5.6589    Y=              1.4961    Z=             -0.1625  Tot=              5.8556
 Quadrupole moment (field-independent basis, Debye-Ang):
   XX=           -126.6859   YY=            -98.1896   ZZ=           -101.8858
   XY=            -15.9111   XZ=              1.2454   YZ=             -0.9958

  Exact polarizability: 812.211  79.117 216.946  -5.486  -7.386 105.152
 Approx polarizability:4930.7251020.201 649.850-157.472 -59.945 190.081

                      1                      2                      3
                      A                      A                      A
 Frequencies --     27.3707                32.7062                46.4451
 Red. masses --      5.4260                 4.5824                 3.3402
 Frc consts  --      0.0024                 0.0029                 0.0042
 IR Inten    --      0.8241                 0.1435                 3.9617

                      4                      5                      6
                      A                      A                      A
 Frequencies --     72.4457               104.8929               120.5659
 Red. masses --      3.8633                 4.1632                 3.2818
 Frc consts  --      0.0119                 0.0270                 0.0281
 IR Inten    --     12.0338                 0.8720                12.1855

                      7                      8                      9
                      A                      A                      A
 Frequencies --    131.3545               149.1344               160.1003
 Red. masses --      3.0551                 1.1484                 2.2569
 Frc consts  --      0.0311                 0.0150                 0.0341
 IR Inten    --      6.1186                 0.4314                53.3325

                     10                     11                     12
                      A                      A                      A
 Frequencies --    193.7337               219.6798               243.3007
 Red. masses --      4.8047                 3.5015                 3.8472
 Frc consts  --      0.1062                 0.0996                 0.1342
 IR Inten    --      1.2803                49.6124                 2.1936

                     13                     14                     15
                      A                      A                      A
 Frequencies --    265.9472               294.1301               314.1797
 Red. masses --      4.0000                 4.1867                 5.1597
 Frc consts  --      0.1667                 0.2134                 0.3001
 IR Inten    --      6.0743                 6.4589                 8.1984

                     16                     17                     18
                      A                      A                      A
 Frequencies --    326.5940               333.5302               364.4432
 Red. masses --      3.6351                 2.8154                 3.6794
 Frc consts  --      0.2284                 0.1845                 0.2879
 IR Inten    --      6.5956                14.7441                 1.1088

                     19                     20                     21
                      A                      A                      A
 Frequencies --    412.1270               453.6020               485.8278
 Red. masses --      4.0939                 4.2411                 3.2575
 Frc consts  --      0.4097                 0.5141                 0.4530
 IR Inten    --     79.3668                27.3523                 6.7647

                     22                     23                     24
                      A                      A                      A
 Frequencies --    497.7564               532.4366               575.1131
 Red. masses --      3.4772                 4.2255                 3.2458
 Frc consts  --      0.5076                 0.7058                 0.6325
 IR Inten    --      6.3694                29.0048                 5.6972

                     25                     26                     27
                      A                      A                      A
 Frequencies --    612.2138               664.6386               677.3858
 Red. masses --      3.2747                 6.0299                 3.9655
 Frc consts  --      0.7232                 1.5694                 1.0721
 IR Inten    --     14.3153               220.6786                 1.2286

                     28                     29                     30
                      A                      A                      A
 Frequencies --    714.5729               728.3472               780.0508
 Red. masses --      2.2096                 1.9113                 1.4883
 Frc consts  --      0.6648                 0.5974                 0.5336
 IR Inten    --     80.9542                92.3758                13.2850

                     31                     32                     33
                      A                      A                      A
 Frequencies --    780.6040               796.3708               819.3314
 Red. masses --      1.4179                 1.4962                 2.1475
 Frc consts  --      0.5091                 0.5591                 0.8494
 IR Inten    --   1421.4340               455.6531                49.6004

                     34                     35                     36
                      A                      A                      A
 Frequencies --    839.1076               849.6990               887.9156
 Red. masses --      2.5268                 2.6139                 4.4706
 Frc consts  --      1.0482                 1.1119                 2.0766
 IR Inten    --     34.3815                 6.0671               128.1464

                     37                     38                     39
                      A                      A                      A
 Frequencies --    910.9049               935.8583               960.7007
 Red. masses --      1.8875                 1.2938                 1.7149
 Frc consts  --      0.9228                 0.6676                 0.9326
 IR Inten    --    312.4378               595.5804                 6.1138

                     40                     41                     42
                      A                      A                      A
 Frequencies --    967.9175               971.7748               985.3494
 Red. masses --      1.5378                 1.2022                 1.3316
 Frc consts  --      0.8489                 0.6689                 0.7617
 IR Inten    --     29.8584               135.8134                 6.7784

                     43                     44                     45
                      A                      A                      A
 Frequencies --    999.4828              1017.0036              1025.9257
 Red. masses --      3.4803                 1.2479                 1.8824
 Frc consts  --      2.0484                 0.7604                 1.1673
 IR Inten    --      7.4401               103.2978                 4.3171

                     46                     47                     48
                      A                      A                      A
 Frequencies --   1055.4779              1094.1031              1178.3096
 Red. masses --      1.4671                 2.0281                 2.3346
 Frc consts  --      0.9630                 1.4304                 1.9098
 IR Inten    --      1.9393                33.7402                 3.9812

                     49                     50                     51
                      A                      A                      A
 Frequencies --   1196.9794              1205.8278              1245.1041
 Red. masses --      1.8811                 1.1876                 1.6184
 Frc consts  --      1.5879                 1.0174                 1.4782
 IR Inten    --     21.0817                 5.0475                 1.8938

                     52                     53                     54
                      A                      A                      A
 Frequencies --   1248.3402              1265.6524              1281.7731
 Red. masses --      1.4769                 4.0848                 1.2251
 Frc consts  --      1.3560                 3.8552                 1.1859
 IR Inten    --     25.7212                12.7234                 3.7596

                     55                     56                     57
                      A                      A                      A
 Frequencies --   1296.6442              1313.6065              1326.2343
 Red. masses --      1.3898                 1.4503                 1.3698
 Frc consts  --      1.3767                 1.4745                 1.4196
 IR Inten    --     11.1455                 5.0919                67.1560

                     58                     59                     60
                      A                      A                      A
 Frequencies --   1355.8734              1404.8973              1428.3661
 Red. masses --      2.0499                 1.2340                 1.8762
 Frc consts  --      2.2203                 1.4350                 2.2553
 IR Inten    --      2.9529                 2.6050                 5.2202

                     61                     62                     63
                      A                      A                      A
 Frequencies --   1441.3498              1453.9763              1472.4088
 Red. masses --      1.8666                 3.2241                 1.4669
 Frc consts  --      2.2847                 4.0158                 1.8737
 IR Inten    --     12.6993                 1.8655                12.5021

                     64                     65                     66
                      A                      A                      A
 Frequencies --   1481.3042              1498.6741              1530.9375
 Red. masses --      1.0606                 1.2310                 4.1735
 Frc consts  --      1.3712                 1.6290                 5.7632
 IR Inten    --      5.7707                28.4749                20.9318

                     67                     68                     69
                      A                      A                      A
 Frequencies --   1543.5626              1594.4433              1620.6483
 Red. masses --      4.0467                 3.9286                 5.0123
 Frc consts  --      5.6806                 5.8845                 7.7565
 IR Inten    --     22.2647                36.0483                 3.6053

                     70                     71                     72
                      A                      A                      A
 Frequencies --   2014.5938              3028.6017              3061.1323
 Red. masses --     10.5626                 1.0380                 1.0896
 Frc consts  --     25.2578                 5.6095                 6.0158
 IR Inten    --     35.3526                44.1323                33.2333

                     73                     74                     75
                      A                      A                      A
 Frequencies --   3083.5040              3089.5355              3097.5969
 Red. masses --      1.0992                 1.0842                 1.0834
 Frc consts  --      6.1579                 6.0976                 6.1249
 IR Inten    --     13.6758                13.9752                13.2913

                     76                     77                     78
                      A                      A                      A
 Frequencies --   3109.4814              3133.9671              3135.7880
 Red. masses --      1.0886                 1.0964                 1.0878
 Frc consts  --      6.2013                 6.3447                 6.3024
 IR Inten    --    218.5880                 3.9505                26.1491

                     79                     80                     81
                      A                      A                      A
 Frequencies --   3139.4663              3143.3616              3156.1918
 Red. masses --      1.0877                 1.0879                 1.0868
 Frc consts  --      6.3166                 6.3334                 6.3785
 IR Inten    --     21.4854                 9.0532                 8.4683

                     82                     83                     84
                      A                      A                      A
 Frequencies --   3157.9796              3167.6645              3187.8620
 Red. masses --      1.0905                 1.0871                 1.0874
 Frc consts  --      6.4077                 6.4266                 6.5108
 IR Inten    --     24.1248                 3.1011                 2.9682

 - Thermochemistry -
 -------------------
 Temperature   298.150 Kelvin.  Pressure   1.00000 Atm.
 Atom     1 has atomic number  6 and mass  12.00000

 Molecular mass:   226.08162 amu.
 Principal axes and moments of inertia in atomic units:
                           1         2         3
     Eigenvalues --  1644.78463********************
           X            0.99998  -0.00592  -0.00207
           Y            0.00594   0.99994   0.00935
           Z            0.00202  -0.00936   0.99995
 This molecule is an asymmetric top.
 Rotational symmetry number  1.
 Warning -- assumption of classical behavior for rotation
           may cause significant error
 Rotational temperatures (Kelvin)      0.05266     0.00795     0.00712
 Rotational constants (GHZ):           1.09725     0.16573     0.14827
 Zero-point vibrational energy     613228.5 (Joules/Mol)
                                  146.56512 (Kcal/Mol)
 Warning -- explicit consideration of  25 degrees of freedom as
           vibrations may cause significant error
 Vibrational temperatures:     39.38    47.06    66.82   104.23   150.92
          (Kelvin)            173.47   188.99   214.57   230.35   278.74
                              316.07   350.06   382.64   423.19   452.03
                              469.90   479.88   524.35   592.96   652.63
                              699.00   716.16   766.06   827.46   880.84
                              956.27   974.61  1028.11  1047.93  1122.32
                             1123.12  1145.80  1178.84  1207.29  1222.53
                             1277.51  1310.59  1346.49  1382.23  1392.62
                             1398.17  1417.70  1438.03  1463.24  1476.08
                             1518.60  1574.17  1695.32  1722.19  1734.92
                             1791.43  1796.08  1820.99  1844.19  1865.58
                             1889.99  1908.16  1950.80  2021.33  2055.10
                             2073.78  2091.95  2118.47  2131.27  2156.26
                             2202.68  2220.84  2294.05  2331.75  2898.55
                             4357.48  4404.29  4436.47  4445.15  4456.75
                             4473.85  4509.08  4511.70  4516.99  4522.60
                             4541.06  4543.63  4557.56  4586.62

 Zero-point correction=                           0.233566 (Hartree/Particle)
 Thermal correction to Energy=                    0.250301
 Thermal correction to Enthalpy=                  0.251245
 Thermal correction to Gibbs Free Energy=         0.187614
 Sum of electronic and zero-point Energies=           -977.716421
 Sum of electronic and thermal Energies=              -977.699686
 Sum of electronic and thermal Enthalpies=            -977.698741
 Sum of electronic and thermal Free Energies=         -977.762373

                     E (Thermal)             CV                S
                      KCal/Mol        Cal/Mol-Kelvin    Cal/Mol-Kelvin
 Total                  157.066             62.005            133.923
 Electronic               0.000              0.000              0.000
 Translational            0.889              2.981             42.150
 Rotational               0.889              2.981             33.744
 Vibrational            155.289             56.043             58.030
 Vibration     1          0.593              1.984              6.011
 Vibration     2          0.594              1.983              5.658
 Vibration     3          0.595              1.979              4.963
 Vibration     4          0.599              1.967              4.086
 Vibration     5          0.605              1.945              3.361
 Vibration     6          0.609              1.932              3.091
 Vibration     7          0.612              1.922              2.926
 Vibration     8          0.618              1.904              2.683
 Vibration     9          0.622              1.891              2.549
 Vibration    10          0.635              1.849              2.192
 Vibration    11          0.647              1.811              1.962
 Vibration    12          0.659              1.774              1.779
 Vibration    13          0.672              1.736              1.622
 Vibration    14          0.689              1.685              1.450
 Vibration    15          0.702              1.647              1.340
 Vibration    16          0.710              1.622              1.277
 Vibration    17          0.715              1.609              1.243
 Vibration    18          0.738              1.545              1.103
 Vibration    19          0.776              1.444              0.919
 Vibration    20          0.812              1.353              0.785
 Vibration    21          0.842              1.281              0.695
 Vibration    22          0.853              1.255              0.664
 Vibration    23          0.887              1.178              0.582
 Vibration    24          0.931              1.085              0.494
 Vibration    25          0.971              1.006              0.429

                           ! Non-Optimized Parameters !
 Normal termination of Gaussian 16 at Sat May 20 15:16:13 2023.
