 Gaussian 16, Revision A.03,
 Gaussian 16:  ES64L-G16RevA.03 25-Dec-2016

 -----------------------------
 # opt freq b3lyp/6-31g(2df,p)
 -----------------------------

 -------------------
 Title Card Required
 -------------------
 Symbolic Z-matrix:
 Charge =  0 Multiplicity = 1

 SCF Done:  E(RB3LYP) =  -635.955091989     A.U. after   34 cycles
 SCF Done:  E(RB3LYP) =  -636.103316085     A.U. after   26 cycles
 SCF Done:  E(RB3LYP) =  -636.304018948     A.U. after   26 cycles
 SCF Done:  E(RB3LYP) =  -636.457151711     A.U. after   27 cycles
 SCF Done:  E(RB3LYP) =  -636.472910427     A.U. after   26 cycles
 SCF Done:  E(RB3LYP) =  -636.641740750     A.U. after   20 cycles
 SCF Done:  E(RB3LYP) =  -636.772660724     A.U. after   21 cycles
 SCF Done:  E(RB3LYP) =  -636.921181195     A.U. after   17 cycles
 SCF Done:  E(RB3LYP) =  -637.038698003     A.U. after   16 cycles
 SCF Done:  E(RB3LYP) =  -637.131644278     A.U. after   16 cycles
 SCF Done:  E(RB3LYP) =  -637.750170764     A.U. after    7 cycles
 SCF Done:  E(RB3LYP) =  -637.750170985     A.U. after    7 cycles
 SCF Done:  E(RB3LYP) =  -637.750171098     A.U. after    6 cycles
 SCF Done:  E(RB3LYP) =  -637.750171190     A.U. after    6 cycles
 SCF Done:  E(RB3LYP) =  -637.750171271     A.U. after    6 cycles
 SCF Done:  E(RB3LYP) =  -637.750171330     A.U. after    7 cycles
 SCF Done:  E(RB3LYP) =  -637.750171367     A.U. after    6 cycles
 SCF Done:  E(RB3LYP) =  -637.750171401     A.U. after    6 cycles
 SCF Done:  E(RB3LYP) =  -637.750171424     A.U. after    6 cycles
 Optimization completed.
    -- Stationary point found.
 Normal termination of Gaussian 16 at Sat May 20 04:03:20 2023.

 ----------------------------------------------------------------------
 #N Geom=AllCheck Guess=TCheck SCRF=Check GenChk RB3LYP/6-31G(2df,p) Fr
 eq
 ----------------------------------------------------------------------

 Structure from the checkpoint file:  "CC1dNC2dCCdCCdCCdCCCCC2C1.chk"
 -------------------
 Title Card Required
 -------------------
 Charge =  0 Multiplicity = 1

                         Standard orientation:
 ---------------------------------------------------------------------
 Center     Atomic      Atomic             Coordinates (Angstroms)
 Number     Number       Type             X           Y           Z
 ---------------------------------------------------------------------
      1          6           0       -6.217672   -0.171000   -0.888924
      2          6           0       -4.827354   -0.056117   -0.358275
      3          7           0       -4.162133   -1.073429    0.073946
      4          6           0       -2.894702   -0.599132    0.443376
      5          6           0       -1.687518   -1.153021    0.562345
      6          6           0       -0.631812   -0.059593    0.729824
      7          6           0        0.634141   -0.314089   -0.032267
      8          6           0        1.866458   -0.338606    0.492556
      9          6           0        3.082214   -0.577803   -0.263149
     10          6           0        4.314319   -0.602246    0.261527
     11          6           0        5.575747   -0.865402   -0.504905
     12          6           0        6.585050    0.260275   -0.493548
     13          6           0        6.375155    1.497685   -0.056289
     14          6           0       -1.397982    1.223142    0.239382
     15          6           0       -2.869458    0.911424    0.552058
     16          6           0       -4.062885    1.276199   -0.347849
     17          1           0       -6.562587   -1.204864   -0.841294
     18          1           0       -6.263447    0.177420   -1.928357
     19          1           0       -6.903774    0.466435   -0.317624
     20          1           0       -1.447482   -2.206852    0.507449
     21          1           0       -0.371859    0.057921    1.793463
     22          1           0        0.512202   -0.486708   -1.102542
     23          1           0        1.987409   -0.169124    1.562736
     24          1           0        2.959870   -0.751868   -1.332420
     25          1           0        4.434766   -0.421703    1.329464
     26          1           0        5.334435   -1.120065   -1.546676
     27          1           0        6.069315   -1.761896   -0.097006
     28          1           0        7.563110   -0.003349   -0.894114
     29          1           0        5.414820    1.808280    0.342664
     30          1           0        7.156051    2.249885   -0.088283
     31          1           0       -1.259405    1.319327   -0.844447
     32          1           0       -1.015926    2.134540    0.707248
     33          1           0       -3.105782    1.206987    1.584742
     34          1           0       -3.754445    1.518892   -1.375434
     35          1           0       -4.674540    2.110451    0.007637
 ---------------------------------------------------------------------

 SCF Done:  E(RB3LYP) =  -637.750171424     A.U. after    1 cycles

 The electronic state is 1-A.
 Alpha  occ. eigenvalues --  -14.31854 -10.23368 -10.19567 -10.19383 -10.19157
 Alpha  occ. eigenvalues --  -10.18913 -10.18899 -10.18635 -10.18444 -10.18355
 Alpha  occ. eigenvalues --  -10.18128 -10.18023 -10.17948 -10.17853 -10.16931
 Alpha  occ. eigenvalues --  -10.16868  -0.94615  -0.83824  -0.81317  -0.78455
 Alpha  occ. eigenvalues --   -0.76419  -0.74997  -0.72509  -0.69229  -0.67893
 Alpha  occ. eigenvalues --   -0.64734  -0.58752  -0.56736  -0.55255  -0.54611
 Alpha  occ. eigenvalues --   -0.52858  -0.51370  -0.48333  -0.47130  -0.46468
 Alpha  occ. eigenvalues --   -0.46308  -0.44782  -0.43409  -0.41576  -0.41098
 Alpha  occ. eigenvalues --   -0.41026  -0.39828  -0.38660  -0.37518  -0.37178
 Alpha  occ. eigenvalues --   -0.36052  -0.35704  -0.35217  -0.34475  -0.34036
 Alpha  occ. eigenvalues --   -0.33120  -0.32317  -0.31421  -0.30406  -0.25777
 Alpha  occ. eigenvalues --   -0.25267  -0.21939  -0.20992
 Alpha virt. eigenvalues --   -0.02342  -0.01394   0.02703   0.05903   0.08728
 Alpha virt. eigenvalues --    0.09518   0.09999   0.10903   0.11601   0.12867
 Alpha virt. eigenvalues --    0.14017   0.14299   0.14736   0.15017   0.15512

 Mulliken charges:
               1
     1  C   -0.481859
     2  C    0.302711
     3  N   -0.313031
     4  C    0.369773
     5  C   -0.258231
     6  C   -0.062368
     7  C   -0.059129
     8  C   -0.080501
     9  C   -0.060158
    10  C   -0.060063
    11  C   -0.287744
    12  C    0.024116
    13  C   -0.311957
    14  C   -0.266980
    15  C   -0.054047
    16  C   -0.347168
    17  H    0.146690
    18  H    0.134230
    19  H    0.133928
    20  H    0.100402
    21  H    0.074407
    22  H    0.079746
    23  H    0.077257
    24  H    0.078033
    25  H    0.086261
    26  H    0.110697
    27  H    0.113446
    28  H    0.086358
    29  H    0.109610
    30  H    0.106096
    31  H    0.097735
    32  H    0.097651
    33  H    0.084541
    34  H    0.118931
    35  H    0.110617
 Sum of Mulliken charges =  -0.00000

 Dipole moment (field-independent basis, Debye):
    X=             -0.6992    Y=              1.7473    Z=             -0.6356  Tot=              1.9865
 Quadrupole moment (field-independent basis, Debye-Ang):
   XX=            -85.7876   YY=            -98.5205   ZZ=            -93.8830
   XY=            -11.7897   XZ=              2.5199   YZ=              1.7626

  Exact polarizability: 306.607 -14.814 138.652  16.872   4.154 118.603
 Approx polarizability: 373.789 -35.732 224.913  33.020   4.367 195.284

                      1                      2                      3
                      A                      A                      A
 Frequencies --     19.7723                32.5834                51.7765
 Red. masses --      4.0906                 4.0771                 3.4118
 Frc consts  --      0.0009                 0.0026                 0.0054
 IR Inten    --      0.1745                 0.1215                 1.3437

                      4                      5                      6
                      A                      A                      A
 Frequencies --     60.4841                97.2026               131.1941
 Red. masses --      3.6657                 3.0820                 2.3057
 Frc consts  --      0.0079                 0.0172                 0.0234
 IR Inten    --      0.0214                 1.4047                 0.0087

                      7                      8                      9
                      A                      A                      A
 Frequencies --    150.7185               160.3478               162.1781
 Red. masses --      1.2632                 1.9483                 2.9896
 Frc consts  --      0.0169                 0.0295                 0.0463
 IR Inten    --      0.6431                 0.1338                 0.1023

                     10                     11                     12
                      A                      A                      A
 Frequencies --    192.0763               238.5449               244.8244
 Red. masses --      2.1200                 3.9275                 2.4855
 Frc consts  --      0.0461                 0.1317                 0.0878
 IR Inten    --      0.7121                 0.3032                 0.5552

                     13                     14                     15
                      A                      A                      A
 Frequencies --    263.0300               314.7064               342.9676
 Red. masses --      2.7661                 2.4045                 3.1001
 Frc consts  --      0.1128                 0.1403                 0.2148
 IR Inten    --      0.9826                 0.7912                 0.4862

                     16                     17                     18
                      A                      A                      A
 Frequencies --    376.2071               410.2150               455.8910
 Red. masses --      2.5861                 3.2996                 2.2153
 Frc consts  --      0.2157                 0.3271                 0.2713
 IR Inten    --      0.2899                 0.7869                 0.0325

                     19                     20                     21
                      A                      A                      A
 Frequencies --    475.8480               506.5081               516.5761
 Red. masses --      2.8629                 3.1506                 2.6472
 Frc consts  --      0.3819                 0.4762                 0.4162
 IR Inten    --      1.3770                 7.4458                 3.2674

                     22                     23                     24
                      A                      A                      A
 Frequencies --    565.0581               572.4024               614.9049
 Red. masses --      1.8825                 2.3792                 2.2603
 Frc consts  --      0.3541                 0.4593                 0.5035
 IR Inten    --      3.6163                 0.4695                 2.8242

                     25                     26                     27
                      A                      A                      A
 Frequencies --    633.2523               688.4248               731.7815
 Red. masses --      3.0994                 2.7872                 5.1424
 Frc consts  --      0.7323                 0.7783                 1.6225
 IR Inten    --      2.6223                 5.5134                 4.1039

                     28                     29                     30
                      A                      A                      A
 Frequencies --    816.9915               820.8682               841.7248
 Red. masses --      2.1872                 2.1134                 4.2147
 Frc consts  --      0.8601                 0.8390                 1.7594
 IR Inten    --      3.4838                 0.9253                 1.1040

                     31                     32                     33
                      A                      A                      A
 Frequencies --    845.0291               879.3796               888.5671
 Red. masses --      1.5980                 2.0605                 2.0533
 Frc consts  --      0.6723                 0.9388                 0.9552
 IR Inten    --     15.3384                 3.9339                 1.0611

                     34                     35                     36
                      A                      A                      A
 Frequencies --    907.5846               923.1004               932.6038
 Red. masses --      1.8200                 2.4508                 1.6443
 Frc consts  --      0.8833                 1.2304                 0.8426
 IR Inten    --      3.3185                 1.3488                 5.5070

                     37                     38                     39
                      A                      A                      A
 Frequencies --    951.9065               965.1144               982.2800
 Red. masses --      1.4407                 2.3033                 1.6400
 Frc consts  --      0.7691                 1.2640                 0.9323
 IR Inten    --     25.5231                 1.2948                 5.1149

                     40                     41                     42
                      A                      A                      A
 Frequencies --    990.1343              1027.6301              1035.3491
 Red. masses --      1.1389                 1.7331                 1.8651
 Frc consts  --      0.6578                 1.0783                 1.1779
 IR Inten    --      0.1397                 2.3828                 5.6225

                     43                     44                     45
                      A                      A                      A
 Frequencies --   1036.7779              1045.4942              1049.0021
 Red. masses --      1.5842                 1.1181                 1.3694
 Frc consts  --      1.0033                 0.7201                 0.8879
 IR Inten    --      1.6475                37.9348                 6.4735

                     46                     47                     48
                      A                      A                      A
 Frequencies --   1059.1802              1094.2671              1109.0323
 Red. masses --      2.0717                 2.1272                 2.1807
 Frc consts  --      1.3694                 1.5008                 1.5803
 IR Inten    --      2.6227                 0.1252                 1.5814

                     49                     50                     51
                      A                      A                      A
 Frequencies --   1124.2913              1148.9097              1165.2109
 Red. masses --      2.1024                 1.8659                 1.8977
 Frc consts  --      1.5657                 1.4512                 1.5181
 IR Inten    --     10.6906                 1.4906                 3.0844

                     52                     53                     54
                      A                      A                      A
 Frequencies --   1180.4537              1191.1396              1203.4533
 Red. masses --      1.7381                 1.9956                 1.2949
 Frc consts  --      1.4270                 1.6682                 1.1050
 IR Inten    --      1.7495                 3.8496                 1.9206

                     55                     56                     57
                      A                      A                      A
 Frequencies --   1223.8001              1241.8107              1252.7599
 Red. masses --      1.7229                 1.2443                 1.5050
 Frc consts  --      1.5203                 1.1305                 1.3916
 IR Inten    --     22.7229                13.9605                 2.0952

                     58                     59                     60
                      A                      A                      A
 Frequencies --   1263.9546              1291.6782              1305.4600
 Red. masses --      1.3907                 1.2263                 1.9011
 Frc consts  --      1.3090                 1.2055                 1.9089
 IR Inten    --      6.5109                 1.2956                28.2309

                     61                     62                     63
                      A                      A                      A
 Frequencies --   1312.3835              1322.0139              1325.0224
 Red. masses --      1.6156                 1.3925                 1.4100
 Frc consts  --      1.6394                 1.4339                 1.4585
 IR Inten    --      6.7984                 0.8354                 0.3071

                     64                     65                     66
                      A                      A                      A
 Frequencies --   1333.1028              1336.5259              1350.7737
 Red. masses --      1.4467                 1.3914                 1.4984
 Frc consts  --      1.5148                 1.4644                 1.6108
 IR Inten    --      1.6650                 0.8617                25.7298

                     67                     68                     69
                      A                      A                      A
 Frequencies --   1363.3019              1390.7576              1405.1426
 Red. masses --      1.4578                 1.5193                 1.3852
 Frc consts  --      1.5964                 1.7314                 1.6114
 IR Inten    --      1.8418                 2.0977                 5.2493

                     70                     71                     72
                      A                      A                      A
 Frequencies --   1445.7084              1463.8758              1467.8835
 Red. masses --      1.1777                 1.0982                 1.0693
 Frc consts  --      1.4502                 1.3866                 1.3574
 IR Inten    --      2.9033                13.6774                 9.1882

                     73                     74                     75
                      A                      A                      A
 Frequencies --   1468.5989              1476.9933              1486.9019
 Red. masses --      1.1156                 1.0465                 1.0982
 Frc consts  --      1.4176                 1.3451                 1.4306
 IR Inten    --     11.8338                 6.9928                 3.6529

                     76                     77                     78
                      A                      A                      A
 Frequencies --   1642.6342              1690.3478              1714.2540
 Red. masses --      7.4591                 6.3170                 4.7310
 Frc consts  --     11.8582                10.6345                 8.1913
 IR Inten    --    112.0626                 0.8507                19.6625

                     79                     80                     81
                      A                      A                      A
 Frequencies --   1721.1908              1727.5435              2975.9326
 Red. masses --      7.2894                 6.9385                 1.0816
 Frc consts  --     12.7233                12.2003                 5.6439
 IR Inten    --      5.7844                 7.0495                27.7462

                     82                     83                     84
                      A                      A                      A
 Frequencies --   2982.5214              2991.6047              3010.1213
 Red. masses --      1.0659                 1.0820                 1.0679
 Frc consts  --      5.5864                 5.7054                 5.7012
 IR Inten    --     36.3667                20.1845                18.8100

                     85                     86                     87
                      A                      A                      A
 Frequencies --   3021.8455              3025.2236              3034.5532
 Red. masses --      1.0918                 1.0396                 1.0629
 Frc consts  --      5.8738                 5.6059                 5.7668
 IR Inten    --     15.1729                27.2407                29.6100

                     88                     89                     90
                      A                      A                      A
 Frequencies --   3072.9779              3084.0162              3094.7272
 Red. masses --      1.0975                 1.0936                 1.1010
 Frc consts  --      6.1064                 6.1284                 6.2128
 IR Inten    --      9.1702                22.9163                37.4557

                     91                     92                     93
                      A                      A                      A
 Frequencies --   3117.4811              3121.7789              3127.7424
 Red. masses --      1.0887                 1.0870                 1.0893
 Frc consts  --      6.2339                 6.2413                 6.2783
 IR Inten    --      8.2906                 0.5137                 6.1531

                     94                     95                     96
                      A                      A                      A
 Frequencies --   3132.9061              3135.0055              3143.8461
 Red. masses --      1.0795                 1.0849                 1.0991
 Frc consts  --      6.2426                 6.2824                 6.4006
 IR Inten    --     46.6202                39.2492                 8.2067

                     97                     98                     99
                      A                      A                      A
 Frequencies --   3151.8275              3217.0360              3230.2655
 Red. masses --      1.0706                 1.0950                 1.1147
 Frc consts  --      6.2663                 6.6767                 6.8528
 IR Inten    --      9.0229                 6.1999                21.0164

 - Thermochemistry -
 -------------------
 Temperature   298.150 Kelvin.  Pressure   1.00000 Atm.
 Atom     1 has atomic number  6 and mass  12.00000

 Molecular mass:   213.15175 amu.
 Principal axes and moments of inertia in atomic units:
                           1         2         3
     Eigenvalues --   825.47267********************
           X            0.99999  -0.00343   0.00241
           Y            0.00337   0.99965   0.02607
           Z           -0.00250  -0.02606   0.99966
 This molecule is an asymmetric top.
 Rotational symmetry number  1.
 Warning -- assumption of classical behavior for rotation
           may cause significant error
 Rotational temperatures (Kelvin)      0.10493     0.00656     0.00639
 Rotational constants (GHZ):           2.18631     0.13679     0.13309
 Zero-point vibrational energy     789061.5 (Joules/Mol)
                                  188.59023 (Kcal/Mol)
 Warning -- explicit consideration of  24 degrees of freedom as
           vibrations may cause significant error
 Vibrational temperatures:     28.45    46.88    74.49    87.02   139.85
          (Kelvin)            188.76   216.85   230.70   233.34   276.35
                              343.21   352.25   378.44   452.79   493.45
                              541.28   590.21   655.93   684.64   728.75
                              743.24   812.99   823.56   884.71   911.11
                              990.49  1052.87  1175.47  1181.05  1211.05
                             1215.81  1265.23  1278.45  1305.81  1328.14
                             1341.81  1369.58  1388.58  1413.28  1424.58
                             1478.53  1489.64  1491.69  1504.23  1509.28
                             1523.92  1574.41  1595.65  1617.60  1653.02
                             1676.48  1698.41  1713.78  1731.50  1760.78
                             1786.69  1802.44  1818.55  1858.44  1878.27
                             1888.23  1902.08  1906.41  1918.04  1922.96
                             1943.46  1961.49  2000.99  2021.69  2080.05
                             2106.19  2111.96  2112.99  2125.06  2139.32
                             2363.38  2432.03  2466.43  2476.41  2485.55
                             4281.70  4291.18  4304.25  4330.89  4347.76
                             4352.62  4366.05  4421.33  4437.21  4452.62
                             4485.36  4491.54  4500.12  4507.55  4510.57
                             4523.29  4534.78  4628.60  4647.63

 Zero-point correction=                           0.300538 (Hartree/Particle)
 Thermal correction to Energy=                    0.316603
 Thermal correction to Enthalpy=                  0.317547
 Thermal correction to Gibbs Free Energy=         0.255132
 Sum of electronic and zero-point Energies=           -637.449634
 Sum of electronic and thermal Energies=              -637.433569
 Sum of electronic and thermal Enthalpies=            -637.432625
 Sum of electronic and thermal Free Energies=         -637.495039

                     E (Thermal)             CV                S
                      KCal/Mol        Cal/Mol-Kelvin    Cal/Mol-Kelvin
 Total                  198.671             60.917            131.363
 Electronic               0.000              0.000              0.000
 Translational            0.889              2.981             41.974
 Rotational               0.889              2.981             33.357
 Vibrational            196.894             54.955             56.032
 Vibration     1          0.593              1.986              6.657
 Vibration     2          0.594              1.983              5.666
 Vibration     3          0.596              1.977              4.748
 Vibration     4          0.597              1.973              4.441
 Vibration     5          0.603              1.951              3.510
 Vibration     6          0.612              1.922              2.928
 Vibration     7          0.618              1.902              2.663
 Vibration     8          0.622              1.891              2.546
 Vibration     9          0.622              1.889              2.524
 Vibration    10          0.634              1.851              2.208
 Vibration    11          0.657              1.782              1.814
 Vibration    12          0.660              1.771              1.768
 Vibration    13          0.670              1.741              1.642
 Vibration    14          0.702              1.646              1.337
 Vibration    15          0.722              1.590              1.198
 Vibration    16          0.747              1.521              1.054
 Vibration    17          0.774              1.448              0.926
 Vibration    18          0.814              1.348              0.778
 Vibration    19          0.832              1.304              0.721
 Vibration    20          0.862              1.236              0.642
 Vibration    21          0.872              1.213              0.618
 Vibration    22          0.921              1.107              0.514
 Vibration    23          0.929              1.091              0.500
 Vibration    24          0.974              1.000              0.425

 Optimization completed.
    -- Stationary point found.
 Normal termination of Gaussian 16 at Sat May 20 06:31:38 2023.
