 Gaussian 16, Revision A.03,
 Gaussian 16:  ES64L-G16RevA.03 25-Dec-2016

 -----------------------------
 # opt freq b3lyp/6-31g(2df,p)
 -----------------------------

 -------------------
 Title Card Required
 -------------------
 Symbolic Z-matrix:
 Charge =  0 Multiplicity = 1

 SCF Done:  E(RB3LYP) =  -642.903760913     A.U. after   16 cycles
 SCF Done:  E(RB3LYP) =  -642.961474219     A.U. after   13 cycles
 SCF Done:  E(RB3LYP) =  -643.019511409     A.U. after   14 cycles
 SCF Done:  E(RB3LYP) =  -643.033732770     A.U. after   15 cycles
 SCF Done:  E(RB3LYP) =  -643.038272526     A.U. after   14 cycles
 SCF Done:  E(RB3LYP) =  -643.042350997     A.U. after   14 cycles
 SCF Done:  E(RB3LYP) =  -643.045265481     A.U. after   14 cycles
 SCF Done:  E(RB3LYP) =  -643.047519560     A.U. after   14 cycles
 SCF Done:  E(RB3LYP) =  -643.048060898     A.U. after   13 cycles
 SCF Done:  E(RB3LYP) =  -643.048155429     A.U. after   13 cycles
 SCF Done:  E(RB3LYP) =  -643.048294023     A.U. after   13 cycles
 SCF Done:  E(RB3LYP) =  -643.048536092     A.U. after   11 cycles
 SCF Done:  E(RB3LYP) =  -643.048553546     A.U. after   12 cycles
 SCF Done:  E(RB3LYP) =  -643.048564015     A.U. after   10 cycles
 SCF Done:  E(RB3LYP) =  -643.048569593     A.U. after   10 cycles
 SCF Done:  E(RB3LYP) =  -643.048570629     A.U. after   10 cycles
 SCF Done:  E(RB3LYP) =  -643.048570937     A.U. after    7 cycles
 SCF Done:  E(RB3LYP) =  -643.048570971     A.U. after    7 cycles
 SCF Done:  E(RB3LYP) =  -643.048570981     A.U. after    6 cycles
 Optimization completed.
    -- Stationary point found.
 Normal termination of Gaussian 16 at Fri May 19 19:04:36 2023.

 ----------------------------------------------------------------------
 #N Geom=AllCheck Guess=TCheck SCRF=Check GenChk RB3LYP/6-31G(2df,p) Fr
 eq
 ----------------------------------------------------------------------

 Structure from the checkpoint file:  "CC1dCqNrCNdC2CdNONdCCdC21.chk"
 -------------------
 Title Card Required
 -------------------
 Charge =  0 Multiplicity = 1

                         Standard orientation:
 ---------------------------------------------------------------------
 Center     Atomic      Atomic             Coordinates (Angstroms)
 Number     Number       Type             X           Y           Z
 ---------------------------------------------------------------------
      1          6           0       -1.918412    2.261665    0.032688
      2          6           0       -1.554976    0.797770    0.010475
      3          6           0       -2.503889   -0.176784    0.044466
      4          7           0       -3.865550    0.052796    0.089745
      5          6           0       -2.153634   -1.640146   -0.035977
      6          7           0       -0.765639   -1.994608   -0.211767
      7          6           0        0.092261   -1.056672   -0.185333
      8          6           0        1.545763   -1.274491   -0.349579
      9          7           0        2.233616   -1.010134    0.688376
     10          8           0        3.530771   -0.554198    0.271854
     11          7           0        3.442398    0.756153   -0.119545
     12          6           0        2.326231    1.419426   -0.183242
     13          6           0        0.861112    1.333426   -0.030765
     14          6           0       -0.153321    0.400822   -0.047245
     15          1           0       -2.991353    2.427935   -0.083277
     16          1           0       -1.434827    2.797266   -0.792222
     17          1           0       -1.602689    2.752582    0.961620
     18          1           0       -4.179547    0.930263    0.472218
     19          1           0       -4.435817   -0.725227    0.384461
     20          1           0       -2.726109   -2.099993   -0.856360
     21          1           0       -2.512007   -2.152506    0.872227
     22          1           0        1.986208   -1.308085   -1.348846
     23          1           0        2.596086    2.437927   -0.467511
     24          1           0        0.493289    2.353879    0.022275
 ---------------------------------------------------------------------

 SCF Done:  E(RB3LYP) =  -643.048570981     A.U. after    1 cycles

 The electronic state is 1-A.
 Alpha  occ. eigenvalues --  -19.21001 -14.38069 -14.37925 -14.36286 -14.33780
 Alpha  occ. eigenvalues --  -10.24675 -10.24449 -10.23679 -10.23384 -10.22555
 Alpha  occ. eigenvalues --  -10.21706 -10.20322 -10.19702 -10.19660  -1.11943
 Alpha  occ. eigenvalues --   -0.96030  -0.93533  -0.90908  -0.85003  -0.81823
 Alpha  occ. eigenvalues --   -0.76533  -0.73863  -0.71001  -0.66160  -0.63172
 Alpha  occ. eigenvalues --   -0.58806  -0.56450  -0.55221  -0.53575  -0.50613
 Alpha  occ. eigenvalues --   -0.48999  -0.48027  -0.47129  -0.45427  -0.44239
 Alpha  occ. eigenvalues --   -0.42843  -0.41225  -0.40404  -0.38949  -0.38245
 Alpha  occ. eigenvalues --   -0.37278  -0.35823  -0.35286  -0.33345  -0.30122
 Alpha  occ. eigenvalues --   -0.29074  -0.27686  -0.25586  -0.24843  -0.19585
 Alpha virt. eigenvalues --   -0.07234  -0.04251   0.00684   0.03601   0.05590
 Alpha virt. eigenvalues --    0.08347   0.09117   0.10472   0.11920   0.12118
 Alpha virt. eigenvalues --    0.13573   0.14615   0.15815   0.17167   0.18497

 Mulliken charges:
               1
     1  C   -0.521640
     2  C    0.131710
     3  C    0.236868
     4  N   -0.571341
     5  C   -0.260815
     6  N   -0.334877
     7  C    0.255730
     8  C   -0.061786
     9  N   -0.060348
    10  O   -0.234939
    11  N   -0.110151
    12  C    0.034280
    13  C   -0.191409
    14  C    0.160312
    15  H    0.109522
    16  H    0.140942
    17  H    0.138081
    18  H    0.258162
    19  H    0.257289
    20  H    0.139205
    21  H    0.133499
    22  H    0.141330
    23  H    0.116727
    24  H    0.093648
 Sum of Mulliken charges =  -0.00000

 Dipole moment (field-independent basis, Debye):
    X=             -6.9859    Y=              1.5232    Z=             -0.4994  Tot=              7.1674
 Quadrupole moment (field-independent basis, Debye-Ang):
   XX=            -78.8808   YY=            -78.2133   ZZ=            -81.4494
   XY=              0.9596   XZ=             -8.0735   YZ=              1.4130

  Exact polarizability: 223.723  24.778 134.519  -2.358  -0.254  69.320
 Approx polarizability: 429.052  79.266 241.004   6.825  -0.944 122.386

                      1                      2                      3
                      A                      A                      A
 Frequencies --     42.1360                85.8804               129.6468
 Red. masses --      3.0088                 4.9095                 1.6730
 Frc consts  --      0.0031                 0.0213                 0.0166
 IR Inten    --      0.9054                 0.8924                 1.5788

                      4                      5                      6
                      A                      A                      A
 Frequencies --    172.3108               203.3255               204.5203
 Red. masses --      2.1743                 3.4282                 3.5645
 Frc consts  --      0.0380                 0.0835                 0.0878
 IR Inten    --      0.9575                 6.3840                 1.0015

                      7                      8                      9
                      A                      A                      A
 Frequencies --    257.5997               300.5252               317.8259
 Red. masses --      3.6974                 3.4290                 2.2808
 Frc consts  --      0.1446                 0.1825                 0.1357
 IR Inten    --      8.3155                 7.2066                11.3499

                     10                     11                     12
                      A                      A                      A
 Frequencies --    344.3833               367.7623               381.3400
 Red. masses --      1.7996                 3.2004                 2.7434
 Frc consts  --      0.1257                 0.2550                 0.2351
 IR Inten    --      7.7140                13.2898                 4.1943

                     13                     14                     15
                      A                      A                      A
 Frequencies --    404.1183               434.1104               463.0227
 Red. masses --      4.2962                 4.2306                 6.7832
 Frc consts  --      0.4134                 0.4697                 0.8568
 IR Inten    --      3.9894                 5.0756                 1.8023

                     16                     17                     18
                      A                      A                      A
 Frequencies --    473.9607               500.7913               557.7308
 Red. masses --      3.0874                 1.5633                 4.6076
 Frc consts  --      0.4086                 0.2310                 0.8445
 IR Inten    --     62.2350               346.8690                12.5167

                     19                     20                     21
                      A                      A                      A
 Frequencies --    576.9927               595.0787               610.0052
 Red. masses --      4.5934                 3.4526                 5.6924
 Frc consts  --      0.9010                 0.7204                 1.2480
 IR Inten    --      2.5768                28.9616                 4.3589

                     22                     23                     24
                      A                      A                      A
 Frequencies --    704.0103               731.0382               786.9471
 Red. masses --      6.0651                 4.3900                 5.8809
 Frc consts  --      1.7711                 1.3823                 2.1458
 IR Inten    --      0.5751                 3.5740                18.1091

                     25                     26                     27
                      A                      A                      A
 Frequencies --    815.1255               865.2920               875.6638
 Red. masses --      6.1329                 2.5654                 1.7432
 Frc consts  --      2.4009                 1.1317                 0.7875
 IR Inten    --     58.4960                11.9432                60.7687

                     28                     29                     30
                      A                      A                      A
 Frequencies --    898.7041               902.3766               945.2666
 Red. masses --      3.6669                 5.0563                 1.4220
 Frc consts  --      1.7450                 2.4258                 0.7486
 IR Inten    --     43.1027                 7.1852                 0.7268

                     31                     32                     33
                      A                      A                      A
 Frequencies --    968.3775               985.1371              1008.1509
 Red. masses --      2.6537                 2.1766                 3.0470
 Frc consts  --      1.4662                 1.2446                 1.8246
 IR Inten    --      0.5686                 0.4521                26.1683

                     34                     35                     36
                      A                      A                      A
 Frequencies --   1015.6584              1052.0054              1064.4873
 Red. masses --      2.5226                 1.4939                 1.6620
 Frc consts  --      1.5332                 0.9741                 1.1096
 IR Inten    --     15.6782                 0.1409                18.6005

                     37                     38                     39
                      A                      A                      A
 Frequencies --   1101.0840              1203.1004              1219.7514
 Red. masses --      4.0892                 2.4524                 2.6655
 Frc consts  --      2.9210                 2.0915                 2.3365
 IR Inten    --     16.3520                51.1133                 3.2343

                     40                     41                     42
                      A                      A                      A
 Frequencies --   1251.6380              1295.5369              1340.8219
 Red. masses --      1.0831                 2.3722                 2.4919
 Frc consts  --      0.9997                 2.3458                 2.6395
 IR Inten    --      0.1054                56.2843                37.2748

                     43                     44                     45
                      A                      A                      A
 Frequencies --   1342.8852              1391.4554              1403.8439
 Red. masses --      1.9695                 1.8551                 1.5149
 Frc consts  --      2.0926                 2.1162                 1.7590
 IR Inten    --     18.7622                33.4604                 3.3423

                     46                     47                     48
                      A                      A                      A
 Frequencies --   1428.2430              1453.8296              1456.5955
 Red. masses --      1.5213                 1.1043                 1.2931
 Frc consts  --      1.8284                 1.3752                 1.6165
 IR Inten    --     13.5025                 0.2494                25.1784

                     49                     50                     51
                      A                      A                      A
 Frequencies --   1482.5493              1505.9670              1557.9274
 Red. masses --      1.0494                 1.0869                 9.0248
 Frc consts  --      1.3590                 1.4524                12.9058
 IR Inten    --      4.8488                14.4615                86.0560

                     52                     53                     54
                      A                      A                      A
 Frequencies --   1594.0580              1654.8231              1660.9791
 Red. masses --      3.4041                 1.3948                 9.7644
 Frc consts  --      5.0964                 2.2504                15.8717
 IR Inten    --     58.6262                 9.1280                 4.6521

                     55                     56                     57
                      A                      A                      A
 Frequencies --   1681.2965              1737.7244              2974.5083
 Red. masses --      3.3190                10.2335                 1.0679
 Frc consts  --      5.5277                18.2068                 5.5670
 IR Inten    --    384.0152                28.4857                54.3375

                     58                     59                     60
                      A                      A                      A
 Frequencies --   2997.9656              3023.6055              3072.4545
 Red. masses --      1.0898                 1.0412                 1.0985
 Frc consts  --      5.7709                 5.6082                 6.1095
 IR Inten    --     21.3658                21.0165                14.0730

                     61                     62                     63
                      A                      A                      A
 Frequencies --   3098.8596              3108.6250              3116.5517
 Red. masses --      1.0894                 1.0836                 1.0955
 Frc consts  --      6.1637                 6.1695                 6.2690
 IR Inten    --      4.7804                17.6696                19.8364

                     64                     65                     66
                      A                      A                      A
 Frequencies --   3165.3756              3583.3589              3684.6563
 Red. masses --      1.0839                 1.0471                 1.0986
 Frc consts  --      6.3986                 7.9218                 8.7881
 IR Inten    --     12.8632                46.7551                17.6242

 - Thermochemistry -
 -------------------
 Temperature   298.150 Kelvin.  Pressure   1.00000 Atm.
 Atom     1 has atomic number  6 and mass  12.00000

 Molecular mass:   190.08546 amu.
 Principal axes and moments of inertia in atomic units:
                           1         2         3
     Eigenvalues --  1166.075733753.501204801.19049
           X            0.99997  -0.00123  -0.00732
           Y            0.00125   0.99999   0.00325
           Z            0.00732  -0.00326   0.99997
 This molecule is an asymmetric top.
 Rotational symmetry number  1.
 Warning -- assumption of classical behavior for rotation
           may cause significant error
 Rotational temperatures (Kelvin)      0.07428     0.02308     0.01804
 Rotational constants (GHZ):           1.54770     0.48082     0.37589
 Zero-point vibrational energy     488264.1 (Joules/Mol)
                                  116.69791 (Kcal/Mol)
 Warning -- explicit consideration of  21 degrees of freedom as
           vibrations may cause significant error
 Vibrational temperatures:     60.62   123.56   186.53   247.92   292.54
          (Kelvin)            294.26   370.63   432.39   457.28   495.49
                              529.13   548.66   581.44   624.59   666.19
                              681.92   720.53   802.45   830.16   856.19
                              877.66  1012.91  1051.80  1132.24  1172.78
                             1244.96  1259.88  1293.03  1298.32  1360.03
                             1393.28  1417.39  1450.50  1461.31  1513.60
                             1531.56  1584.21  1730.99  1754.95  1800.83
                             1863.99  1929.14  1932.11  2001.99  2019.82
                             2054.92  2091.74  2095.72  2133.06  2166.75
                             2241.51  2293.49  2380.92  2389.78  2419.01
                             2500.20  4279.65  4313.40  4350.29  4420.58
                             4458.57  4472.62  4484.02  4554.27  5155.65
                             5301.40

 Zero-point correction=                           0.185970 (Hartree/Particle)
 Thermal correction to Energy=                    0.198133
 Thermal correction to Enthalpy=                  0.199077
 Thermal correction to Gibbs Free Energy=         0.147902
 Sum of electronic and zero-point Energies=           -642.862601
 Sum of electronic and thermal Energies=              -642.850438
 Sum of electronic and thermal Enthalpies=            -642.849494
 Sum of electronic and thermal Free Energies=         -642.900669

                     E (Thermal)             CV                S
                      KCal/Mol        Cal/Mol-Kelvin    Cal/Mol-Kelvin
 Total                  124.330             47.820            107.706
 Electronic               0.000              0.000              0.000
 Translational            0.889              2.981             41.633
 Rotational               0.889              2.981             31.419
 Vibrational            122.553             41.858             34.654
 Vibration     1          0.595              1.980              5.156
 Vibration     2          0.601              1.959              3.752
 Vibration     3          0.612              1.924              2.951
 Vibration     4          0.626              1.877              2.410
 Vibration     5          0.639              1.835              2.103
 Vibration     6          0.640              1.833              2.092
 Vibration     7          0.667              1.750              1.678
 Vibration     8          0.693              1.673              1.414
 Vibration     9          0.704              1.640              1.321
 Vibration    10          0.723              1.587              1.192
 Vibration    11          0.740              1.539              1.089
 Vibration    12          0.751              1.510              1.034
 Vibration    13          0.769              1.461              0.948
 Vibration    14          0.795              1.396              0.845
 Vibration    15          0.821              1.332              0.757
 Vibration    16          0.831              1.308              0.727
 Vibration    17          0.856              1.248              0.656
 Vibration    18          0.913              1.123              0.528
 Vibration    19          0.933              1.081              0.491
 Vibration    20          0.953              1.042              0.458
 Vibration    21          0.969              1.011              0.433

 Optimization completed.
    -- Stationary point found.
 Normal termination of Gaussian 16 at Fri May 19 20:28:40 2023.
