 Gaussian 16, Revision A.03,
 Gaussian 16:  ES64L-G16RevA.03 25-Dec-2016

 -----------------------------
 # opt freq b3lyp/6-31g(2df,p)
 -----------------------------

 -------------------
 Title Card Required
 -------------------
 Symbolic Z-matrix:
 Charge =  0 Multiplicity = 1

 SCF Done:  E(RB3LYP) =  -648.393172222     A.U. after   36 cycles
 SCF Done:  E(RB3LYP) =  -648.782715763     A.U. after   25 cycles
 SCF Done:  E(RB3LYP) =  -649.237118822     A.U. after   24 cycles
 SCF Done:  E(RB3LYP) =  -649.184917911     A.U. after   27 cycles
 SCF Done:  E(RB3LYP) =  -649.460652719     A.U. after   25 cycles
 SCF Done:  E(RB3LYP) =  -646.903941102     A.U. after   22 cycles
 SCF Done:  E(RB3LYP) =  -649.373746549     A.U. after   21 cycles
 SCF Done:  E(RB3LYP) =  -649.496122736     A.U. after   20 cycles
 SCF Done:  E(RB3LYP) =  -649.549957135     A.U. after   20 cycles
 SCF Done:  E(RB3LYP) =  -649.635327141     A.U. after   19 cycles
 SCF Done:  E(RB3LYP) =  -649.982273976     A.U. after    8 cycles
 SCF Done:  E(RB3LYP) =  -649.982276487     A.U. after    8 cycles
 SCF Done:  E(RB3LYP) =  -649.982278035     A.U. after    8 cycles
 SCF Done:  E(RB3LYP) =  -649.982280005     A.U. after    8 cycles
 SCF Done:  E(RB3LYP) =  -649.982281615     A.U. after    8 cycles
 SCF Done:  E(RB3LYP) =  -649.982282478     A.U. after    8 cycles
 SCF Done:  E(RB3LYP) =  -649.982283126     A.U. after    7 cycles
 SCF Done:  E(RB3LYP) =  -649.982283445     A.U. after    7 cycles
 SCF Done:  E(RB3LYP) =  -649.982283594     A.U. after    7 cycles
 Optimization completed.
    -- Stationary point found.
 Normal termination of Gaussian 16 at Sat May 20 08:29:34 2023.

 ----------------------------------------------------------------------
 #N Geom=AllCheck Guess=TCheck SCRF=Check GenChk RB3LYP/6-31G(2df,p) Fr
 eq
 ----------------------------------------------------------------------

 Structure from the checkpoint file:  "CC1dCCqc2[nH]nc3c2CdCCdCCdC3rdC1.chk"
 -------------------
 Title Card Required
 -------------------
 Charge =  0 Multiplicity = 1

                         Standard orientation:
 ---------------------------------------------------------------------
 Center     Atomic      Atomic             Coordinates (Angstroms)
 Number     Number       Type             X           Y           Z
 ---------------------------------------------------------------------
      1          6           0        5.593957   -1.820530    0.051886
      2          6           0        4.301322   -1.101625    0.029992
      3          6           0        3.933823    0.410046   -0.132592
      4          6           0        2.627333    0.100762   -0.032387
      5          6           0        1.372015    0.771260   -0.052001
      6          7           0        1.218780    2.121829   -0.206362
      7          7           0       -0.062404    2.521543   -0.192557
      8          6           0       -0.775262    1.396247   -0.024418
      9          6           0        0.080975    0.272621    0.072028
     10          6           0       -3.144678   -0.972300    0.517560
     11          6           0       -5.130638   -2.245909   -0.694223
     12          6           0       -4.398582   -1.285879   -0.157191
     13          6           0       -4.416902    0.042674    0.440331
     14          6           0       -3.044698    0.439035    0.170885
     15          6           0       -2.225311    1.474804    0.021236
     16          6           0        3.006664   -1.418021    0.130728
     17          1           0        6.237477   -1.453432    0.862648
     18          1           0        6.150924   -1.661747   -0.881254
     19          1           0        5.448347   -2.896030    0.187515
     20          1           0        4.502350    1.319621   -0.269591
     21          1           0        1.943827    2.809547   -0.318138
     22          1           0       -4.715185   -3.228696   -0.878952
     23          1           0       -6.163513   -2.072795   -0.969603
     24          1           0       -2.729177   -1.464773    1.388671
     25          1           0       -5.054284    0.389711    1.244864
     26          1           0       -0.191147   -0.761271    0.203472
     27          1           0       -2.647450    2.467431   -0.093047
     28          1           0        2.443100   -2.330277    0.264851
 ---------------------------------------------------------------------

 SCF Done:  E(RB3LYP) =  -649.982283594     A.U. after    1 cycles

 The electronic state is 1-A.
 Alpha  occ. eigenvalues --  -14.39356 -14.33735 -10.23322 -10.23309 -10.22050
 Alpha  occ. eigenvalues --  -10.21754 -10.21486 -10.20401 -10.20277 -10.20114
 Alpha  occ. eigenvalues --  -10.18997 -10.18770 -10.18283 -10.17674 -10.17276
 Alpha  occ. eigenvalues --  -10.16979  -1.03603  -0.94303  -0.87087  -0.82313
 Alpha  occ. eigenvalues --   -0.78534  -0.75585  -0.73700  -0.71954  -0.65528
 Alpha  occ. eigenvalues --   -0.62512  -0.61795  -0.61006  -0.58533  -0.55305
 Alpha  occ. eigenvalues --   -0.54015  -0.51391  -0.50948  -0.47430  -0.45871
 Alpha  occ. eigenvalues --   -0.44014  -0.43765  -0.43658  -0.43027  -0.42160
 Alpha  occ. eigenvalues --   -0.42012  -0.41400  -0.37783  -0.36608  -0.35710
 Alpha  occ. eigenvalues --   -0.34715  -0.33744  -0.32867  -0.31456  -0.29600
 Alpha  occ. eigenvalues --   -0.28081  -0.25195  -0.24276  -0.19448  -0.17107
 Alpha virt. eigenvalues --   -0.05893   0.00214   0.02259   0.02909   0.03919
 Alpha virt. eigenvalues --    0.07495   0.10619   0.10933   0.11942   0.12882
 Alpha virt. eigenvalues --    0.13395   0.13734   0.14062   0.14586   0.14904

 Mulliken charges:
               1
     1  C   -0.509827
     2  C    0.371545
     3  C   -0.445522
     4  C    0.382909
     5  C    0.315916
     6  N   -0.315802
     7  N   -0.282071
     8  C    0.398823
     9  C   -0.482077
    10  C   -0.282112
    11  C   -0.491911
    12  C    0.380685
    13  C   -0.275669
    14  C    0.433860
    15  C   -0.453597
    16  C   -0.361300
    17  H    0.133183
    18  H    0.133687
    19  H    0.131876
    20  H    0.105972
    21  H    0.271684
    22  H    0.111066
    23  H    0.111972
    24  H    0.147901
    25  H    0.147713
    26  H    0.107438
    27  H    0.102717
    28  H    0.110940
 Sum of Mulliken charges =  -0.00000

 Dipole moment (field-independent basis, Debye):
    X=              1.5618    Y=             -1.2004    Z=              1.3266  Tot=              2.3749
 Quadrupole moment (field-independent basis, Debye-Ang):
   XX=            -74.6081   YY=            -89.7132   ZZ=            -94.3516
   XY=              2.6420   XZ=             -5.8339   YZ=             -1.2741

  Exact polarizability: 297.159  15.004 171.236   2.133   1.875  80.344
 Approx polarizability: 412.144  23.850 286.944  -0.188  -0.870 131.474

                      1                      2                      3
                      A                      A                      A
 Frequencies --     37.4806                41.8191                58.6968
 Red. masses --      3.8890                 3.5991                 3.3657
 Frc consts  --      0.0032                 0.0037                 0.0068
 IR Inten    --      0.1523                 0.2377                 0.5976

                      4                      5                      6
                      A                      A                      A
 Frequencies --     79.2010                90.3493               119.1500
 Red. masses --      3.5926                 4.1882                 3.7319
 Frc consts  --      0.0133                 0.0201                 0.0312
 IR Inten    --      0.4248                 0.0311                 1.1490

                      7                      8                      9
                      A                      A                      A
 Frequencies --    150.1958               203.9971               219.7146
 Red. masses --      4.3553                 1.2313                 3.0554
 Frc consts  --      0.0579                 0.0302                 0.0869
 IR Inten    --      0.0330                 0.6229                 0.7820

                     10                     11                     12
                      A                      A                      A
 Frequencies --    247.8589               296.6718               324.5402
 Red. masses --      3.9096                 3.7127                 4.2302
 Frc consts  --      0.1415                 0.1925                 0.2625
 IR Inten    --      0.8120                 5.9386                 3.3285

                     13                     14                     15
                      A                      A                      A
 Frequencies --    350.7778               367.5325               396.7038
 Red. masses --      4.2300                 3.3265                 4.2049
 Frc consts  --      0.3067                 0.2647                 0.3899
 IR Inten    --      1.9207                 2.3906                 3.6590

                     16                     17                     18
                      A                      A                      A
 Frequencies --    431.1225               451.6047               495.6538
 Red. masses --      4.8152                 2.8932                 1.7727
 Frc consts  --      0.5273                 0.3477                 0.2566
 IR Inten    --      0.3576                14.2446                28.4364

                     19                     20                     21
                      A                      A                      A
 Frequencies --    501.6377               575.3599               601.2324
 Red. masses --      3.2111                 1.5294                 6.9089
 Frc consts  --      0.4761                 0.2983                 1.4714
 IR Inten    --      9.6423                22.4403                 6.5074

                     22                     23                     24
                      A                      A                      A
 Frequencies --    619.8018               664.8602               682.9107
 Red. masses --      1.7344                 3.2603                 2.0774
 Frc consts  --      0.3926                 0.8491                 0.5708
 IR Inten    --     16.3044                 9.6715                 2.2574

                     25                     26                     27
                      A                      A                      A
 Frequencies --    701.0053               713.9733               720.0007
 Red. masses --      1.9929                 1.7886                 1.8636
 Frc consts  --      0.5770                 0.5372                 0.5692
 IR Inten    --      5.4292                 5.4068                 9.3157

                     28                     29                     30
                      A                      A                      A
 Frequencies --    750.8345               751.6684               770.4967
 Red. masses --      1.4616                 2.3495                 2.6873
 Frc consts  --      0.4855                 0.7821                 0.9400
 IR Inten    --     16.8650                48.6676                11.0568

                     31                     32                     33
                      A                      A                      A
 Frequencies --    807.3123               838.5937               857.4611
 Red. masses --      1.9044                 1.3154                 1.8979
 Frc consts  --      0.7313                 0.5450                 0.8222
 IR Inten    --      8.7193                41.2665                21.1710

                     34                     35                     36
                      A                      A                      A
 Frequencies --    865.6305               886.0952               913.9128
 Red. masses --      3.0107                 1.9091                 2.5799
 Frc consts  --      1.3292                 0.8831                 1.2696
 IR Inten    --      9.5926                 7.4337                 5.5783

                     37                     38                     39
                      A                      A                      A
 Frequencies --    958.4900               969.8648               995.2195
 Red. masses --      2.8452                 2.9278                 2.3117
 Frc consts  --      1.5400                 1.6226                 1.3490
 IR Inten    --      6.1372                41.4391                 3.0168

                     40                     41                     42
                      A                      A                      A
 Frequencies --   1005.3907              1047.0305              1047.0821
 Red. masses --      3.1438                 1.5350                 1.5747
 Frc consts  --      1.8723                 0.9914                 1.0172
 IR Inten    --     29.6142                 2.2928                 4.1073

                     43                     44                     45
                      A                      A                      A
 Frequencies --   1056.8287              1090.7057              1128.9761
 Red. masses --      3.1707                 4.4254                 1.3503
 Frc consts  --      2.0865                 3.1019                 1.0140
 IR Inten    --      7.8072                 4.0344                 2.3916

                     46                     47                     48
                      A                      A                      A
 Frequencies --   1139.3624              1158.1146              1177.1451
 Red. masses --      1.4964                 1.7276                 2.1128
 Frc consts  --      1.1445                 1.3652                 1.7249
 IR Inten    --      1.5670                 6.3735                26.0241

                     49                     50                     51
                      A                      A                      A
 Frequencies --   1191.8917              1206.2179              1223.6459
 Red. masses --      1.9976                 2.2550                 1.6416
 Frc consts  --      1.6720                 1.9330                 1.4482
 IR Inten    --      9.8430                18.8686                 2.2161

                     52                     53                     54
                      A                      A                      A
 Frequencies --   1237.4746              1303.7595              1340.5083
 Red. masses --      2.3281                 4.9510                 1.9669
 Frc consts  --      2.1005                 4.9583                 2.0824
 IR Inten    --     27.4965                 1.4394                18.0938

                     55                     56                     57
                      A                      A                      A
 Frequencies --   1406.4938              1420.3384              1443.5418
 Red. masses --      1.2752                 3.2065                 5.2457
 Frc consts  --      1.4863                 3.8112                 6.4404
 IR Inten    --      0.6375                 4.3351                 0.0669

                     58                     59                     60
                      A                      A                      A
 Frequencies --   1462.2236              1467.1747              1479.7515
 Red. masses --      1.1679                 1.0440                 1.0699
 Frc consts  --      1.4713                 1.3241                 1.3802
 IR Inten    --      1.6317                 5.5869                 8.7975

                     61                     62                     63
                      A                      A                      A
 Frequencies --   1495.1120              1564.7380              1686.2739
 Red. masses --      3.9741                 4.2513                 8.6465
 Frc consts  --      5.2340                 6.1328                14.4859
 IR Inten    --      6.4103                64.0685                 5.4623

                     64                     65                     66
                      A                      A                      A
 Frequencies --   1716.4179              1816.7549              1842.8421
 Red. masses --      7.2743                 9.9045                 9.4166
 Frc consts  --     12.6266                19.2608                18.8418
 IR Inten    --     10.8889               312.2435                19.6619

                     67                     68                     69
                      A                      A                      A
 Frequencies --   3008.5028              3051.5842              3107.8691
 Red. masses --      1.0379                 1.0979                 1.0985
 Frc consts  --      5.5348                 6.0237                 6.2511
 IR Inten    --     40.1196                17.2106                14.6988

                     70                     71                     72
                      A                      A                      A
 Frequencies --   3163.8115              3185.1125              3193.4104
 Red. masses --      1.0590                 1.0882                 1.0899
 Frc consts  --      6.2456                 6.5042                 6.5488
 IR Inten    --      1.4077                 9.1234                 1.1970

                     73                     74                     75
                      A                      A                      A
 Frequencies --   3200.1261              3219.3752              3231.8672
 Red. masses --      1.0958                 1.0985                 1.1000
 Frc consts  --      6.6119                 6.7081                 6.7695
 IR Inten    --      1.1293                12.2708                 3.9253

                     76                     77                     78
                      A                      A                      A
 Frequencies --   3249.4378              3271.5669              3676.4463
 Red. masses --      1.1159                 1.0963                 1.0805
 Frc consts  --      6.9419                 6.9136                 8.6047
 IR Inten    --      4.5549                 0.6504                92.1181

 - Thermochemistry -
 -------------------
 Temperature   298.150 Kelvin.  Pressure   1.00000 Atm.
 Atom     1 has atomic number  6 and mass  12.00000

 Molecular mass:   208.10005 amu.
 Principal axes and moments of inertia in atomic units:
                           1         2         3
     Eigenvalues --  1632.128388413.331799897.20307
           X            1.00000  -0.00311   0.00002
           Y            0.00311   0.99999   0.00164
           Z           -0.00003  -0.00164   1.00000
 This molecule is an asymmetric top.
 Rotational symmetry number  1.
 Warning -- assumption of classical behavior for rotation
           may cause significant error
 Rotational temperatures (Kelvin)      0.05307     0.01029     0.00875
 Rotational constants (GHZ):           1.10576     0.21451     0.18235
 Zero-point vibrational energy     569568.0 (Joules/Mol)
                                  136.13003 (Kcal/Mol)
 Warning -- explicit consideration of  22 degrees of freedom as
           vibrations may cause significant error
 Vibrational temperatures:     53.93    60.17    84.45   113.95   129.99
          (Kelvin)            171.43   216.10   293.51   316.12   356.61
                              426.84   466.94   504.69   528.80   570.77
                              620.29   649.76   713.14   721.74   827.81
                              865.04   891.76   956.59   982.56  1008.59
                             1027.25  1035.92  1080.28  1081.48  1108.57
                             1161.54  1206.55  1233.70  1245.45  1274.89
                             1314.92  1379.05  1395.42  1431.90  1446.53
                             1506.44  1506.52  1520.54  1569.28  1624.34
                             1639.29  1666.27  1693.65  1714.87  1735.48
                             1760.55  1780.45  1875.82  1928.69  2023.63
                             2043.55  2076.93  2103.81  2110.94  2129.03
                             2151.13  2251.31  2426.17  2469.54  2613.91
                             2651.44  4328.56  4390.55  4471.53  4552.02
                             4582.67  4594.61  4604.27  4631.96  4649.94
                             4675.22  4707.06  5289.59

 Zero-point correction=                           0.216937 (Hartree/Particle)
 Thermal correction to Energy=                    0.231767
 Thermal correction to Enthalpy=                  0.232711
 Thermal correction to Gibbs Free Energy=         0.173713
 Sum of electronic and zero-point Energies=           -649.765347
 Sum of electronic and thermal Energies=              -649.750517
 Sum of electronic and thermal Enthalpies=            -649.749573
 Sum of electronic and thermal Free Energies=         -649.808570

                     E (Thermal)             CV                S
                      KCal/Mol        Cal/Mol-Kelvin    Cal/Mol-Kelvin
 Total                  145.436             56.688            124.171
 Electronic               0.000              0.000              0.000
 Translational            0.889              2.981             41.902
 Rotational               0.889              2.981             33.274
 Vibrational            143.658             50.727             48.994
 Vibration     1          0.594              1.982              5.388
 Vibration     2          0.594              1.980              5.171
 Vibration     3          0.596              1.974              4.501
 Vibration     4          0.600              1.963              3.911
 Vibration     5          0.602              1.956              3.652
 Vibration     6          0.609              1.933              3.114
 Vibration     7          0.618              1.902              2.670
 Vibration     8          0.640              1.834              2.097
 Vibration     9          0.647              1.811              1.961
 Vibration    10          0.661              1.766              1.746
 Vibration    11          0.690              1.680              1.436
 Vibration    12          0.709              1.626              1.287
 Vibration    13          0.728              1.574              1.163
 Vibration    14          0.740              1.539              1.090
 Vibration    15          0.763              1.477              0.975
 Vibration    16          0.792              1.402              0.855
 Vibration    17          0.810              1.357              0.791
 Vibration    18          0.851              1.260              0.669
 Vibration    19          0.857              1.246              0.654
 Vibration    20          0.932              1.085              0.494
 Vibration    21          0.959              1.029              0.448
 Vibration    22          0.980              0.990              0.417

 Optimization completed.
    -- Stationary point found.
 Normal termination of Gaussian 16 at Sat May 20 10:10:30 2023.
