 Gaussian 16, Revision A.03,
 Gaussian 16:  ES64L-G16RevA.03 25-Dec-2016

 -----------------------------
 # opt freq b3lyp/6-31g(2df,p)
 -----------------------------

 -------------------
 Title Card Required
 -------------------
 Symbolic Z-matrix:
 Charge =  0 Multiplicity = 1

 SCF Done:  E(RB3LYP) =  -704.206783795     A.U. after   28 cycles
 SCF Done:  E(RB3LYP) =  -704.284604695     A.U. after   19 cycles
 SCF Done:  E(RB3LYP) =  -704.361705611     A.U. after   17 cycles
 SCF Done:  E(RB3LYP) =  -704.403212676     A.U. after   16 cycles
 SCF Done:  E(RB3LYP) =  -704.434030300     A.U. after   16 cycles
 SCF Done:  E(RB3LYP) =  -704.454906825     A.U. after   16 cycles
 SCF Done:  E(RB3LYP) =  -704.465480367     A.U. after   15 cycles
 SCF Done:  E(RB3LYP) =  -704.466102911     A.U. after   10 cycles
 SCF Done:  E(RB3LYP) =  -704.476328019     A.U. after   15 cycles
 SCF Done:  E(RB3LYP) =  -704.488423919     A.U. after   16 cycles
 SCF Done:  E(RB3LYP) =  -704.526699609     A.U. after   13 cycles
 SCF Done:  E(RB3LYP) =  -704.526790365     A.U. after   12 cycles
 SCF Done:  E(RB3LYP) =  -704.526830539     A.U. after   13 cycles
 SCF Done:  E(RB3LYP) =  -704.526852431     A.U. after   11 cycles
 SCF Done:  E(RB3LYP) =  -704.526866222     A.U. after   13 cycles
 SCF Done:  E(RB3LYP) =  -704.526877868     A.U. after   11 cycles
 SCF Done:  E(RB3LYP) =  -704.526887222     A.U. after   11 cycles
 SCF Done:  E(RB3LYP) =  -704.526890999     A.U. after   10 cycles
 SCF Done:  E(RB3LYP) =  -704.526892362     A.U. after    9 cycles
 Optimization completed.
    -- Stationary point found.

 The electronic state is 1-A.
 Alpha  occ. eigenvalues --  -19.14921 -19.13263 -14.35239 -10.31543 -10.30247
 Alpha  occ. eigenvalues --  -10.26383 -10.25664 -10.24934 -10.23355 -10.23281
 Alpha  occ. eigenvalues --  -10.22951 -10.22840 -10.22457 -10.22433 -10.22226
 Alpha  occ. eigenvalues --  -10.22107  -1.06141  -1.05639  -0.96252  -0.90805
 Alpha  occ. eigenvalues --   -0.84811  -0.83675  -0.76928  -0.75486  -0.74288
 Alpha  occ. eigenvalues --   -0.68767  -0.65914  -0.62083  -0.60464  -0.54318
 Alpha  occ. eigenvalues --   -0.53481  -0.52011  -0.50871  -0.50128  -0.49286
 Alpha  occ. eigenvalues --   -0.46469  -0.45763  -0.45101  -0.44367  -0.43115
 Alpha  occ. eigenvalues --   -0.42691  -0.40984  -0.40098  -0.38212  -0.36547
 Alpha  occ. eigenvalues --   -0.35825  -0.33611  -0.31168  -0.29965  -0.28120
 Alpha  occ. eigenvalues --   -0.27594  -0.26427  -0.24729  -0.21167
 Alpha virt. eigenvalues --   -0.12659  -0.07932  -0.06776  -0.01969   0.00681
 Alpha virt. eigenvalues --    0.03464   0.04801   0.07854   0.08485   0.10295
 Alpha virt. eigenvalues --    0.10679   0.12857   0.13635   0.15055   0.15132

 Mulliken charges:
               1
     1  C   -0.512401
     2  C    0.181726
     3  C    0.049899
     4  C    0.301396
     5  O   -0.313435
     6  C   -0.141841
     7  C   -0.082522
     8  C    0.271742
     9  C   -0.259957
    10  C   -0.043430
    11  C   -0.155248
    12  C    0.238843
    13  C   -0.265628
    14  N   -0.249553
    15  C    0.353134
    16  O   -0.315291
    17  H    0.159097
    18  H    0.154740
    19  H    0.156793
    20  H    0.136868
    21  H    0.112909
    22  H    0.106592
    23  H    0.115566
 Sum of Mulliken charges =  -0.00000

 Dipole moment (field-independent basis, Debye):
    X=             -2.3528    Y=              6.2507    Z=             -0.0126  Tot=              6.6788
 Quadrupole moment (field-independent basis, Debye-Ang):
   XX=            -82.9408   YY=            -90.8634   ZZ=            -94.1584
   XY=              1.9819   XZ=             -8.7515   YZ=             -0.8928

 Normal termination of Gaussian 16 at Tue May 16 15:57:56 2023.

 ----------------------------------------------------------------------
 #N Geom=AllCheck Guess=TCheck SCRF=Check GenChk RB3LYP/6-31G(2df,p) Fr
 eq
 ----------------------------------------------------------------------

 Structure from the checkpoint file:  "CC1d[C]CqdOrC2dCdCdCCdCCqdC1r[N]C2dO.chk"
 -------------------
 Title Card Required
 -------------------
 Charge =  0 Multiplicity = 1

                         Standard orientation:
 ---------------------------------------------------------------------
 Center     Atomic      Atomic             Coordinates (Angstroms)
 Number     Number       Type             X           Y           Z
 ---------------------------------------------------------------------
      1          6           0       -3.332326    1.321794   -0.213123
      2          6           0       -2.327306    0.380754    0.311080
      3          6           0       -1.623787   -0.713164    0.162336
      4          6           0       -0.864005   -1.551726   -0.756378
      5          8           0       -1.303608   -2.207870   -1.673133
      6          6           0        0.630333   -1.428698   -0.558839
      7          6           0        1.290464   -0.570488   -1.392143
      8          6           0        1.770438    0.573313   -1.453860
      9          6           0        2.125550    1.840519   -1.066922
     10          6           0        1.310679    2.592839   -0.209588
     11          6           0        0.306358    2.083333    0.628689
     12          6           0        0.124766    0.741636    1.081745
     13          6           0       -1.245186    0.170173    1.334921
     14          7           0        1.108942   -0.119402    1.145410
     15          6           0        1.234565   -1.453108    0.885383
     16          8           0        1.780735   -2.329777    1.486999
     17          1           0       -3.757722    0.964080   -1.153601
     18          1           0       -2.881231    2.306478   -0.376776
     19          1           0       -4.142434    1.458980    0.512896
     20          1           0        3.123594    2.214398   -1.288050
     21          1           0        1.526577    3.658320   -0.125826
     22          1           0       -0.395866    2.805535    1.042029
     23          1           0       -1.455788   -0.193860    2.340727
 ---------------------------------------------------------------------

 SCF Done:  E(RB3LYP) =  -704.526892362     A.U. after    1 cycles
