 Gaussian 16, Revision A.03,
 Gaussian 16:  ES64L-G16RevA.03 25-Dec-2016

 -----------------------------
 # opt freq b3lyp/6-31g(2df,p)
 -----------------------------

 -------------------
 Title Card Required
 -------------------
 Symbolic Z-matrix:
 Charge =  0 Multiplicity = 1

 SCF Done:  E(RB3LYP) =  -1691.77939043     A.U. after   28 cycles
 SCF Done:  E(RB3LYP) =  -1691.85552822     A.U. after   19 cycles
 SCF Done:  E(RB3LYP) =  -1691.92038144     A.U. after   18 cycles
 SCF Done:  E(RB3LYP) =  -1691.98727575     A.U. after   17 cycles
 SCF Done:  E(RB3LYP) =  -1692.06205850     A.U. after   17 cycles
 SCF Done:  E(RB3LYP) =  -1692.08690127     A.U. after   16 cycles
 SCF Done:  E(RB3LYP) =  -1692.11480251     A.U. after   16 cycles
 SCF Done:  E(RB3LYP) =  -1692.13638041     A.U. after   15 cycles
 SCF Done:  E(RB3LYP) =  -1692.15796284     A.U. after   14 cycles
 SCF Done:  E(RB3LYP) =  -1692.20173796     A.U. after   14 cycles
 SCF Done:  E(RB3LYP) =  -1692.25021028     A.U. after   11 cycles
 SCF Done:  E(RB3LYP) =  -1692.25026735     A.U. after    8 cycles
 SCF Done:  E(RB3LYP) =  -1692.25029579     A.U. after   11 cycles
 SCF Done:  E(RB3LYP) =  -1692.25030649     A.U. after   10 cycles
 SCF Done:  E(RB3LYP) =  -1692.25030939     A.U. after   10 cycles
 SCF Done:  E(RB3LYP) =  -1692.25031053     A.U. after    9 cycles
 SCF Done:  E(RB3LYP) =  -1692.25031127     A.U. after    8 cycles
 SCF Done:  E(RB3LYP) =  -1692.25031132     A.U. after    8 cycles
 SCF Done:  E(RB3LYP) =  -1692.25031142     A.U. after    8 cycles
 Optimization completed.
    -- Stationary point found.
 Normal termination of Gaussian 16 at Sat May 20 04:44:29 2023.

 ----------------------------------------------------------------------
 #N Geom=AllCheck Guess=TCheck SCRF=Check GenChk RB3LYP/6-31G(2df,p) Fr
 eq
 ----------------------------------------------------------------------

 Structure from the checkpoint file:  "CC1dNS2dCNdCCdC2[SH]2CC2SCdC1.chk"
 -------------------
 Title Card Required
 -------------------
 Charge =  0 Multiplicity = 1

                         Standard orientation:
 ---------------------------------------------------------------------
 Center     Atomic      Atomic             Coordinates (Angstroms)
 Number     Number       Type             X           Y           Z
 ---------------------------------------------------------------------
      1          6           0       -1.043746    3.582287    0.032414
      2          6           0       -0.675480    2.122083   -0.154883
      3          7           0       -1.463223    1.431675   -0.894326
      4         16           0       -1.550916   -0.299383   -1.139196
      5          6           0       -3.303690   -0.369125   -0.762141
      6          7           0       -3.761358   -0.525013    0.429008
      7          6           0       -2.989739   -0.825766    1.495433
      8          6           0       -1.702683   -1.312253    1.355933
      9          6           0       -1.031061   -1.340706    0.126542
     10         16           0        0.432039   -2.304182   -0.140145
     11          6           0        5.126538   -0.641688   -0.476570
     12          6           0        3.807755   -0.481554   -0.411636
     13         16           0        3.033556    0.589354    0.761316
     14          6           0        1.490868    0.903352    0.001654
     15          6           0        0.569519    1.729213    0.520977
     16          1           0       -0.226837    4.233684   -0.296527
     17          1           0       -1.211342    3.787166    1.096673
     18          1           0       -1.950976    3.817699   -0.523557
     19          1           0       -3.952045   -0.299996   -1.627632
     20          1           0       -3.481231   -0.815578    2.461374
     21          1           0       -1.216134   -1.775363    2.209872
     22          1           0       -0.135716   -3.449578   -0.580411
     23          1           0        5.557680   -1.363722   -1.160651
     24          1           0        5.813987   -0.080037    0.146757
     25          1           0        3.120382   -1.050298   -1.030006
     26          1           0        1.332686    0.405384   -0.949701
     27          1           0        0.797078    2.276330    1.433098
 ---------------------------------------------------------------------

 SCF Done:  E(RB3LYP) =  -1692.25031142     A.U. after    1 cycles

 The electronic state is 1-A.
 Alpha  occ. eigenvalues --  -88.97004 -88.90894 -88.88120 -14.33875 -14.33233
 Alpha  occ. eigenvalues --  -10.25737 -10.24076 -10.23080 -10.22899 -10.22085
 Alpha  occ. eigenvalues --  -10.20626 -10.19695 -10.19432 -10.19370 -10.19145
 Alpha  occ. eigenvalues --   -8.01994  -7.97126  -7.94510  -5.98427  -5.98192
 Alpha  occ. eigenvalues --   -5.97839  -5.93561  -5.93201  -5.92791  -5.90971
 Alpha  occ. eigenvalues --   -5.90622  -5.90075  -0.94973  -0.92253  -0.84757
 Alpha  occ. eigenvalues --   -0.83467  -0.79594  -0.77690  -0.74059  -0.72566
 Alpha  occ. eigenvalues --   -0.71121  -0.64928  -0.61469  -0.60439  -0.57513
 Alpha  occ. eigenvalues --   -0.55298  -0.51895  -0.49909  -0.49258  -0.48794
 Alpha  occ. eigenvalues --   -0.45196  -0.44821  -0.43535  -0.43361  -0.42292
 Alpha  occ. eigenvalues --   -0.41144  -0.41014  -0.39857  -0.38944  -0.38002
 Alpha  occ. eigenvalues --   -0.36249  -0.35410  -0.34793  -0.33766  -0.31413
 Alpha  occ. eigenvalues --   -0.29365  -0.29068  -0.26194  -0.25064  -0.24200
 Alpha  occ. eigenvalues --   -0.22043  -0.19129
 Alpha virt. eigenvalues --   -0.05602  -0.02888  -0.00647  -0.00139   0.02326
 Alpha virt. eigenvalues --    0.02986   0.03886   0.04652   0.06353   0.06928
 Alpha virt. eigenvalues --    0.10251   0.10518   0.11277   0.12147   0.13395

 Mulliken charges:
               1
     1  C   -0.451295
     2  C    0.304351
     3  N   -0.302229
     4  S    0.165244
     5  C   -0.109109
     6  N   -0.132038
     7  C   -0.072543
     8  C   -0.095828
     9  C    0.018701
    10  S   -0.317454
    11  C   -0.334314
    12  C   -0.018825
    13  S   -0.016105
    14  C   -0.090905
    15  C   -0.148044
    16  H    0.139571
    17  H    0.141319
    18  H    0.146750
    19  H    0.132048
    20  H    0.097459
    21  H    0.113462
    22  H    0.158123
    23  H    0.131574
    24  H    0.131761
    25  H    0.147272
    26  H    0.149777
    27  H    0.111274
 Sum of Mulliken charges =  -0.00000

 Dipole moment (field-independent basis, Debye):
    X=              2.4370    Y=              0.9982    Z=             -0.5519  Tot=              2.6907
 Quadrupole moment (field-independent basis, Debye-Ang):
   XX=           -112.6783   YY=           -102.6187   ZZ=           -106.7964
   XY=             -2.1509   XZ=             -0.7998   YZ=              4.5173

  Exact polarizability: 265.985 -23.698 177.421  -4.239   4.511 138.985
 Approx polarizability: 420.020 -58.366 285.614   2.463  -0.266 273.041

                      1                      2                      3
                      A                      A                      A
 Frequencies --     14.7407                37.7975                55.9274
 Red. masses --      7.1712                 5.0329                 5.0477
 Frc consts  --      0.0009                 0.0042                 0.0093
 IR Inten    --      0.1655                 0.2833                 0.3079

                      4                      5                      6
                      A                      A                      A
 Frequencies --     66.5029                72.0259                94.0338
 Red. masses --      4.7117                 3.2509                 3.6469
 Frc consts  --      0.0123                 0.0099                 0.0190
 IR Inten    --      0.8431                 0.1412                 0.7587

                      7                      8                      9
                      A                      A                      A
 Frequencies --    110.3441               128.1136               150.7393
 Red. masses --      3.5994                 2.8488                 1.2233
 Frc consts  --      0.0258                 0.0275                 0.0164
 IR Inten    --      2.1366                 1.4710                 0.7222

                     10                     11                     12
                      A                      A                      A
 Frequencies --    159.4104               205.9823               227.7654
 Red. masses --      3.3438                 3.1942                 3.5001
 Frc consts  --      0.0501                 0.0798                 0.1070
 IR Inten    --      0.7348                 1.5650                 3.4455

                     13                     14                     15
                      A                      A                      A
 Frequencies --    235.2929               262.0838               274.0321
 Red. masses --      3.9285                 2.8952                 1.8659
 Frc consts  --      0.1281                 0.1172                 0.0826
 IR Inten    --      2.8040                 0.2184                 6.8233

                     16                     17                     18
                      A                      A                      A
 Frequencies --    308.5173               340.8275               360.3214
 Red. masses --      5.5453                 4.5364                 7.1138
 Frc consts  --      0.3110                 0.3105                 0.5442
 IR Inten    --      5.6213                14.3229                 8.0250

                     19                     20                     21
                      A                      A                      A
 Frequencies --    395.3625               416.1630               421.4047
 Red. masses --      4.1177                 4.0493                 4.4807
 Frc consts  --      0.3792                 0.4132                 0.4688
 IR Inten    --      5.9659                14.2660                10.3162

                     22                     23                     24
                      A                      A                      A
 Frequencies --    494.3506               511.9934               573.1421
 Red. masses --      4.4534                 7.4012                 4.2017
 Frc consts  --      0.6412                 1.1431                 0.8132
 IR Inten    --     27.7954                 5.2853                 9.3419

                     25                     26                     27
                      A                      A                      A
 Frequencies --    595.4582               600.8541               605.3763
 Red. masses --      3.8500                 4.2451                 1.8503
 Frc consts  --      0.8043                 0.9030                 0.3995
 IR Inten    --     21.1129                 8.6371                 3.0548

                     28                     29                     30
                      A                      A                      A
 Frequencies --    644.9743               702.6746               719.8539
 Red. masses --      5.9943                 5.1397                 4.1239
 Frc consts  --      1.4692                 1.4952                 1.2591
 IR Inten    --     39.9517                 8.6172                18.0397

                     31                     32                     33
                      A                      A                      A
 Frequencies --    728.6292               806.3348               821.5028
 Red. masses --      1.4444                 1.5661                 2.0446
 Frc consts  --      0.4518                 0.5999                 0.8130
 IR Inten    --     36.3505                17.1745                 0.6343

                     34                     35                     36
                      A                      A                      A
 Frequencies --    833.5715               839.5078               918.0704
 Red. masses --      3.1813                 4.5272                 1.6068
 Frc consts  --      1.3024                 1.8799                 0.7979
 IR Inten    --     78.5469                26.4258                34.1556

                     37                     38                     39
                      A                      A                      A
 Frequencies --    923.0442               928.3710               934.2206
 Red. masses --      1.3748                 2.4036                 1.4512
 Frc consts  --      0.6901                 1.2206                 0.7462
 IR Inten    --     27.4907                11.9438                 1.3897

                     40                     41                     42
                      A                      A                      A
 Frequencies --    979.5497               983.9826               996.2532
 Red. masses --      1.1216                 2.4413                 1.1009
 Frc consts  --      0.6341                 1.3927                 0.6438
 IR Inten    --     51.7016                 6.9746                26.5284

                     43                     44                     45
                      A                      A                      A
 Frequencies --   1019.9175              1042.7457              1047.7538
 Red. masses --      1.8465                 1.5699                 1.4465
 Frc consts  --      1.1317                 1.0057                 0.9356
 IR Inten    --      5.3399                 1.8972                 9.0411

                     46                     47                     48
                      A                      A                      A
 Frequencies --   1075.9808              1181.2990              1216.4106
 Red. masses --      2.9220                 2.3032                 1.7584
 Frc consts  --      1.9932                 1.8937                 1.5329
 IR Inten    --      5.2937                37.0530                18.9877

                     49                     50                     51
                      A                      A                      A
 Frequencies --   1243.9744              1264.5388              1298.9305
 Red. masses --      1.6002                 1.3779                 1.2539
 Frc consts  --      1.4589                 1.2982                 1.2465
 IR Inten    --     47.6918                 1.8862                14.0086

                     52                     53                     54
                      A                      A                      A
 Frequencies --   1321.6427              1336.4107              1389.7405
 Red. masses --      1.2573                 1.3832                 1.2461
 Frc consts  --      1.2940                 1.4556                 1.4180
 IR Inten    --     16.1488                 2.9009                 3.5051

                     55                     56                     57
                      A                      A                      A
 Frequencies --   1423.5333              1461.5756              1467.3880
 Red. masses --      1.1925                 3.3932                 1.1220
 Frc consts  --      1.4238                 4.2707                 1.4234
 IR Inten    --      5.3540                40.2443                34.3266

                     58                     59                     60
                      A                      A                      A
 Frequencies --   1477.3117              1478.5462              1581.7341
 Red. masses --      2.3407                 1.0551                 7.2911
 Frc consts  --      3.0098                 1.3590                10.7476
 IR Inten    --      6.4746                 7.3460                 9.8033

                     61                     62                     63
                      A                      A                      A
 Frequencies --   1615.3959              1656.4589              1669.3047
 Red. masses --      7.1197                 5.3527                 5.1752
 Frc consts  --     10.9464                 8.6533                 8.4967
 IR Inten    --    493.0770                77.8465                28.4540

                     64                     65                     66
                      A                      A                      A
 Frequencies --   2601.5876              3032.2531              3091.0775
 Red. masses --      1.0396                 1.0381                 1.0987
 Frc consts  --      4.1456                 5.6238                 6.1850
 IR Inten    --     25.2052                12.5469                 9.1966

                     67                     68                     69
                      A                      A                      A
 Frequencies --   3151.4844              3155.7568              3156.3945
 Red. masses --      1.0885                 1.0577                 1.1000
 Frc consts  --      6.3697                 6.2059                 6.4568
 IR Inten    --      5.6905                 0.3733                 9.6157

                     70                     71                     72
                      A                      A                      A
 Frequencies --   3166.4654              3181.2844              3183.3188
 Red. masses --      1.0865                 1.0904                 1.0946
 Frc consts  --      6.4185                 6.5018                 6.5353
 IR Inten    --      1.1528                 6.2148                 2.0637

                     73                     74                     75
                      A                      A                      A
 Frequencies --   3191.4180              3195.9525              3243.1834
 Red. masses --      1.0902                 1.0936                 1.1155
 Frc consts  --      6.5421                 6.5813                 6.9129
 IR Inten    --     14.8851                 8.9712                 2.7289

 - Thermochemistry -
 -------------------
 Temperature   298.150 Kelvin.  Pressure   1.00000 Atm.
 Atom     1 has atomic number  6 and mass  12.00000

 Molecular mass:   256.01626 amu.
 Principal axes and moments of inertia in atomic units:
                           1         2         3
     Eigenvalues --  2716.246136076.869247652.63434
           X            0.99982  -0.01590  -0.00997
           Y            0.01597   0.99985   0.00719
           Z            0.00986  -0.00735   0.99992
 This molecule is an asymmetric top.
 Rotational symmetry number  1.
 Warning -- assumption of classical behavior for rotation
           may cause significant error
 Rotational temperatures (Kelvin)      0.03189     0.01425     0.01132
 Rotational constants (GHZ):           0.66442     0.29699     0.23583
 Zero-point vibrational energy     514991.6 (Joules/Mol)
                                  123.08595 (Kcal/Mol)
 Warning -- explicit consideration of  27 degrees of freedom as
           vibrations may cause significant error
 Vibrational temperatures:     21.21    54.38    80.47    95.68   103.63
          (Kelvin)            135.29   158.76   184.33   216.88   229.36
                              296.36   327.70   338.53   377.08   394.27
                              443.89   490.37   518.42   568.84   598.77
                              606.31   711.26   736.64   824.62   856.73
                              864.50   871.00   927.97  1010.99  1035.71
                             1048.33  1160.14  1181.96  1199.32  1207.86
                             1320.90  1328.05  1335.72  1344.14  1409.35
                             1415.73  1433.39  1467.43  1500.28  1507.48
                             1548.10  1699.63  1750.14  1789.80  1819.39
                             1868.87  1901.55  1922.80  1999.53  2048.15
                             2102.88  2111.24  2125.52  2127.30  2275.76
                             2324.19  2383.27  2401.76  3743.10  4362.74
                             4447.37  4534.28  4540.43  4541.35  4555.84
                             4577.16  4580.09  4591.74  4598.26  4666.22

 Zero-point correction=                           0.196150 (Hartree/Particle)
 Thermal correction to Energy=                    0.213523
 Thermal correction to Enthalpy=                  0.214467
 Thermal correction to Gibbs Free Energy=         0.148707
 Sum of electronic and zero-point Energies=          -1692.054161
 Sum of electronic and thermal Energies=             -1692.036788
 Sum of electronic and thermal Enthalpies=           -1692.035844
 Sum of electronic and thermal Free Energies=        -1692.101604

                     E (Thermal)             CV                S
                      KCal/Mol        Cal/Mol-Kelvin    Cal/Mol-Kelvin
 Total                  133.988             62.179            138.403
 Electronic               0.000              0.000              0.000
 Translational            0.889              2.981             42.520
 Rotational               0.889              2.981             33.201
 Vibrational            132.210             56.217             62.682
 Vibration     1          0.593              1.986              7.240
 Vibration     2          0.594              1.982              5.371
 Vibration     3          0.596              1.975              4.596
 Vibration     4          0.598              1.970              4.254
 Vibration     5          0.598              1.967              4.097
 Vibration     6          0.603              1.953              3.574
 Vibration     7          0.606              1.941              3.263
 Vibration     8          0.611              1.925              2.974
 Vibration     9          0.618              1.902              2.663
 Vibration    10          0.621              1.892              2.557
 Vibration    11          0.640              1.831              2.079
 Vibration    12          0.651              1.799              1.896
 Vibration    13          0.655              1.787              1.838
 Vibration    14          0.669              1.742              1.648
 Vibration    15          0.676              1.721              1.571
 Vibration    16          0.698              1.658              1.370
 Vibration    17          0.720              1.594              1.208
 Vibration    18          0.735              1.554              1.121
 Vibration    19          0.762              1.480              0.980
 Vibration    20          0.779              1.435              0.905
 Vibration    21          0.784              1.424              0.887
 Vibration    22          0.850              1.263              0.672
 Vibration    23          0.867              1.223              0.629
 Vibration    24          0.929              1.089              0.498
 Vibration    25          0.953              1.041              0.458
 Vibration    26          0.959              1.030              0.448
 Vibration    27          0.964              1.020              0.441

                           ! Non-Optimized Parameters !
 Normal termination of Gaussian 16 at Sat May 20 06:38:11 2023.
