 Gaussian 16, Revision A.03,
 Gaussian 16:  ES64L-G16RevA.03 25-Dec-2016

 -----------------------------
 # opt freq b3lyp/6-31g(2df,p)
 -----------------------------

 -------------------
 Title Card Required
 -------------------
 Symbolic Z-matrix:
 Charge =  0 Multiplicity = 1

 SCF Done:  E(RB3LYP) =  -793.524909226     A.U. after   33 cycles
 SCF Done:  E(RB3LYP) =  -793.643741530     A.U. after   21 cycles
 SCF Done:  E(RB3LYP) =  -793.802007044     A.U. after   29 cycles
 SCF Done:  E(RB3LYP) =  -793.885335151     A.U. after   24 cycles
 SCF Done:  E(RB3LYP) =  -793.961253329     A.U. after   23 cycles
 SCF Done:  E(RB3LYP) =  -793.991103371     A.U. after   20 cycles
 SCF Done:  E(RB3LYP) =  -794.108010025     A.U. after   16 cycles
 SCF Done:  E(RB3LYP) =  -794.213278530     A.U. after   16 cycles
 SCF Done:  E(RB3LYP) =  -794.219370245     A.U. after   17 cycles
 SCF Done:  E(RB3LYP) =  -794.260968705     A.U. after   16 cycles
 SCF Done:  E(RB3LYP) =  -794.418573720     A.U. after   10 cycles
 SCF Done:  E(RB3LYP) =  -794.418596041     A.U. after   12 cycles
 SCF Done:  E(RB3LYP) =  -794.418603534     A.U. after   11 cycles
 SCF Done:  E(RB3LYP) =  -794.418613747     A.U. after   11 cycles
 SCF Done:  E(RB3LYP) =  -794.418619376     A.U. after   10 cycles
 SCF Done:  E(RB3LYP) =  -794.418623492     A.U. after   10 cycles
 SCF Done:  E(RB3LYP) =  -794.418628059     A.U. after   10 cycles
 SCF Done:  E(RB3LYP) =  -794.418630224     A.U. after    9 cycles
 SCF Done:  E(RB3LYP) =  -794.418630770     A.U. after    9 cycles
 Optimization completed.
    -- Stationary point found.
 Normal termination of Gaussian 16 at Wed May 17 03:52:50 2023.

 ----------------------------------------------------------------------
 #N Geom=AllCheck Guess=TCheck SCRF=Check GenChk RB3LYP/6-31G(2df,p) Fr
 eq
 ----------------------------------------------------------------------

 Structure from the checkpoint file:  "CC1dNN2NdCCdCCdCCdNC2dCOC1dO.chk"
 -------------------
 Title Card Required
 -------------------
 Charge =  0 Multiplicity = 1

                         Standard orientation:
 ---------------------------------------------------------------------
 Center     Atomic      Atomic             Coordinates (Angstroms)
 Number     Number       Type             X           Y           Z
 ---------------------------------------------------------------------
      1          6           0        3.124769    0.931125    1.837441
      2          6           0        2.326940    0.569590    0.625293
      3          7           0        1.333092    1.311128    0.264182
      4          7           0        0.658579    0.934918   -0.856565
      5          7           0       -0.593896    1.434109   -1.098855
      6          6           0       -1.259932    2.066066   -0.186140
      7          6           0       -2.678346    1.844020   -0.386717
      8          6           0       -3.292739    1.070732    0.573439
      9          6           0       -3.471580   -0.282598    0.137057
     10          6           0       -3.235148   -1.392847    0.908100
     11          6           0       -2.228252   -2.325426    0.441071
     12          7           0       -1.104719   -1.809600    0.008454
     13          6           0       -0.024706   -1.256829   -0.031271
     14          6           0        0.681721   -0.492073   -1.175449
     15          8           0        2.018623   -0.928249   -1.256579
     16          6           0        2.812962   -0.580329   -0.197317
     17          8           0        3.876463   -1.112148   -0.038304
     18          1           0        2.731103    1.845796    2.282404
     19          1           0        4.178708    1.065419    1.575692
     20          1           0        3.085722    0.122775    2.575423
     21          1           0       -0.831637    2.367624    0.768602
     22          1           0       -2.895688    1.593431   -1.421715
     23          1           0       -3.124132    1.252215    1.632260
     24          1           0       -3.306253   -0.426528   -0.928019
     25          1           0       -3.549898   -1.463351    1.949347
     26          1           0       -2.253772   -3.401300    0.584497
     27          1           0        0.219636   -0.635376   -2.152968
 ---------------------------------------------------------------------

 SCF Done:  E(RB3LYP) =  -794.418630770     A.U. after    1 cycles

 The electronic state is 1-A.
 Alpha  occ. eigenvalues --  -19.20158 -19.14019 -14.43567 -14.40946 -14.38904
 Alpha  occ. eigenvalues --  -14.36809 -10.32192 -10.31802 -10.25320 -10.24635
 Alpha  occ. eigenvalues --  -10.23805 -10.23758 -10.21977 -10.21082 -10.20760
 Alpha  occ. eigenvalues --  -10.20517 -10.19488  -1.13111  -1.07235  -1.03637
 Alpha  occ. eigenvalues --   -0.98264  -0.94655  -0.86371  -0.82542  -0.80300
 Alpha  occ. eigenvalues --   -0.76388  -0.72578  -0.71280  -0.66925  -0.64580
 Alpha  occ. eigenvalues --   -0.60460  -0.58781  -0.57848  -0.56980  -0.54295
 Alpha  occ. eigenvalues --   -0.51956  -0.51178  -0.49033  -0.47108  -0.46158
 Alpha  occ. eigenvalues --   -0.45006  -0.44561  -0.43567  -0.42690  -0.41934
 Alpha  occ. eigenvalues --   -0.41031  -0.40753  -0.40359  -0.38696  -0.38507
 Alpha  occ. eigenvalues --   -0.35280  -0.34856  -0.33282  -0.32053  -0.31173
 Alpha  occ. eigenvalues --   -0.29390  -0.27278  -0.26365  -0.21622  -0.19220
 Alpha virt. eigenvalues --   -0.07916  -0.06160  -0.03234  -0.02713  -0.00759
 Alpha virt. eigenvalues --    0.02154   0.06611   0.09364   0.10862   0.12379
 Alpha virt. eigenvalues --    0.13335   0.13892   0.13961   0.14587   0.15175

 Mulliken charges:
               1
     1  C   -0.468891
     2  C    0.199059
     3  N   -0.223109
     4  N    0.032242
     5  N   -0.165708
     6  C   -0.010800
     7  C   -0.135073
     8  C   -0.092733
     9  C   -0.056809
    10  C   -0.138692
    11  C   -0.116063
    12  N    0.064095
    13  C   -0.053703
    14  C    0.011313
    15  O   -0.219492
    16  C    0.393740
    17  O   -0.317944
    18  H    0.138017
    19  H    0.154958
    20  H    0.150473
    21  H    0.134879
    22  H    0.122168
    23  H    0.111365
    24  H    0.103597
    25  H    0.109463
    26  H    0.127974
    27  H    0.145673
 Sum of Mulliken charges =  -0.00000

 Dipole moment (field-independent basis, Debye):
    X=             -2.8326    Y=              0.5677    Z=              1.5987  Tot=              3.3017
 Quadrupole moment (field-independent basis, Debye-Ang):
   XX=           -106.1211   YY=            -95.9754   ZZ=            -91.9132
   XY=              8.3759   XZ=              1.2939   YZ=              2.0739

  Exact polarizability: 247.818   2.869 161.975  -2.470  -9.747 117.098
 Approx polarizability: 463.831   9.780 339.227 -27.470 -51.040 217.104

                      1                      2                      3
                      A                      A                      A
 Frequencies --     58.6113                69.7560                89.5113
 Red. masses --      5.2555                 6.2276                 3.7165
 Frc consts  --      0.0106                 0.0179                 0.0175
 IR Inten    --      2.7993                 0.2790                 5.8011

                      4                      5                      6
                      A                      A                      A
 Frequencies --    130.6136               146.6091               155.8578
 Red. masses --      4.4102                 1.1532                 3.7043
 Frc consts  --      0.0443                 0.0146                 0.0530
 IR Inten    --     10.9651                 1.2488                 0.1659

                      7                      8                      9
                      A                      A                      A
 Frequencies --    176.4348               198.2800               245.2462
 Red. masses --      4.7732                 4.7474                 2.8144
 Frc consts  --      0.0875                 0.1100                 0.0997
 IR Inten    --      2.5536                 2.4414                25.2370

                     10                     11                     12
                      A                      A                      A
 Frequencies --    262.7970               288.7709               313.0171
 Red. masses --      4.2848                 3.3853                 4.3267
 Frc consts  --      0.1743                 0.1663                 0.2498
 IR Inten    --      4.4764                 9.6017                 3.4036

                     13                     14                     15
                      A                      A                      A
 Frequencies --    320.6655               335.6799               399.5289
 Red. masses --      3.0792                 5.3267                 6.0452
 Frc consts  --      0.1866                 0.3536                 0.5685
 IR Inten    --      2.5942                21.7894                 0.7677

                     16                     17                     18
                      A                      A                      A
 Frequencies --    409.1641               414.0260               462.1758
 Red. masses --      8.4845                 7.4560                 6.0609
 Frc consts  --      0.8369                 0.7530                 0.7628
 IR Inten    --     11.8477                36.1910                13.5828

                     19                     20                     21
                      A                      A                      A
 Frequencies --    476.7744               486.8931               533.3378
 Red. masses --      6.9776                 3.7856                 4.6642
 Frc consts  --      0.9345                 0.5287                 0.7817
 IR Inten    --      9.5975                 1.8977                11.4269

                     22                     23                     24
                      A                      A                      A
 Frequencies --    555.3108               569.8311               595.4290
 Red. masses --      6.3044                 5.4179                 4.7586
 Frc consts  --      1.1454                 1.0365                 0.9940
 IR Inten    --      4.4591                12.2050                 9.1512

                     25                     26                     27
                      A                      A                      A
 Frequencies --    642.1994               671.6410               708.4081
 Red. masses --      4.0624                 4.3781                 5.7683
 Frc consts  --      0.9871                 1.1636                 1.7055
 IR Inten    --     17.7799                 0.6639                 8.7948

                     28                     29                     30
                      A                      A                      A
 Frequencies --    722.2283               768.9052               793.1491
 Red. masses --      2.0273                 5.7067                 2.2979
 Frc consts  --      0.6230                 1.9878                 0.8517
 IR Inten    --     40.9591                 2.5262                62.4952

                     31                     32                     33
                      A                      A                      A
 Frequencies --    813.9698               838.7415               855.5408
 Red. masses --      4.3197                 1.7037                 4.5428
 Frc consts  --      1.6862                 0.7062                 1.9591
 IR Inten    --     11.4174                96.1814                 9.8524

                     34                     35                     36
                      A                      A                      A
 Frequencies --    923.1602               933.3095               967.9094
 Red. masses --      4.0902                 1.4121                 1.4978
 Frc consts  --      2.0538                 0.7247                 0.8268
 IR Inten    --     44.9358                 9.5652                 2.2502

                     37                     38                     39
                      A                      A                      A
 Frequencies --   1021.4116              1038.2753              1049.5405
 Red. masses --      2.5068                 1.9112                 1.6265
 Frc consts  --      1.5409                 1.2139                 1.0556
 IR Inten    --     26.5760                33.6622                 4.1123

                     40                     41                     42
                      A                      A                      A
 Frequencies --   1062.7023              1067.7809              1099.8606
 Red. masses --      2.1460                 2.2363                 3.2193
 Frc consts  --      1.4279                 1.5022                 2.2945
 IR Inten    --     57.6099                45.5194               105.0679

                     43                     44                     45
                      A                      A                      A
 Frequencies --   1116.6497              1138.6633              1170.2219
 Red. masses --      5.3502                 2.3169                 2.8373
 Frc consts  --      3.9305                 1.7699                 2.2893
 IR Inten    --     92.5620                69.7886               190.1709

                     46                     47                     48
                      A                      A                      A
 Frequencies --   1174.8752              1227.9267              1238.2059
 Red. masses --      3.1033                 1.6462                 1.6355
 Frc consts  --      2.5238                 1.4624                 1.4774
 IR Inten    --     61.3390                16.0067                32.4304

                     49                     50                     51
                      A                      A                      A
 Frequencies --   1282.3545              1289.0594              1301.5945
 Red. masses --      1.8713                 1.4569                 2.0211
 Frc consts  --      1.8130                 1.4263                 2.0174
 IR Inten    --      6.8998                 9.7728                 5.9659

                     52                     53                     54
                      A                      A                      A
 Frequencies --   1306.2947              1346.2372              1377.4849
 Red. masses --      1.6181                 1.5961                 1.7251
 Frc consts  --      1.6268                 1.7043                 1.9286
 IR Inten    --      2.9661                14.5786                13.7831

                     55                     56                     57
                      A                      A                      A
 Frequencies --   1391.1760              1413.3961              1420.7847
 Red. masses --      1.4314                 1.5121                 2.3739
 Frc consts  --      1.6323                 1.7798                 2.8233
 IR Inten    --      6.3902                 3.9213                 6.6780

                     58                     59                     60
                      A                      A                      A
 Frequencies --   1465.9429              1472.6456              1519.5951
 Red. masses --      1.0520                 1.0683                 2.7754
 Frc consts  --      1.3320                 1.3650                 3.7760
 IR Inten    --      7.6715                 6.1692                 9.6179

                     61                     62                     63
                      A                      A                      A
 Frequencies --   1541.1390              1586.0591              1641.0457
 Red. masses --      4.9564                 5.1054                 8.4767
 Frc consts  --      6.9359                 7.5670                13.4499
 IR Inten    --     16.4682                29.0550                 1.3143

                     64                     65                     66
                      A                      A                      A
 Frequencies --   1835.9474              1961.2556              3045.1504
 Red. masses --     12.9839                11.6860                 1.0366
 Frc consts  --     25.7855                26.4840                 5.6637
 IR Inten    --    474.1410               211.0509                 8.8285

                     67                     68                     69
                      A                      A                      A
 Frequencies --   3102.0320              3112.5034              3118.1286
 Red. masses --      1.0983                 1.0883                 1.0869
 Frc consts  --      6.2265                 6.2117                 6.2261
 IR Inten    --      4.8334                 7.6834                15.8908

                     70                     71                     72
                      A                      A                      A
 Frequencies --   3139.9291              3143.2491              3150.9882
 Red. masses --      1.0874                 1.0887                 1.1023
 Frc consts  --      6.3163                 6.3377                 6.4484
 IR Inten    --      9.9244                 2.0196                 4.8431

                     73                     74                     75
                      A                      A                      A
 Frequencies --   3152.5873              3160.8931              3165.1952
 Red. masses --      1.0890                 1.0854                 1.0867
 Frc consts  --      6.3767                 6.3894                 6.4147
 IR Inten    --     10.9781                17.7994                12.2216

 - Thermochemistry -
 -------------------
 Temperature   298.150 Kelvin.  Pressure   1.00000 Atm.
 Atom     1 has atomic number  6 and mass  12.00000

 Molecular mass:   230.08038 amu.
 Principal axes and moments of inertia in atomic units:
                           1         2         3
     Eigenvalues --  2041.377655186.481116061.33644
           X            0.99982   0.01480   0.01198
           Y           -0.01504   0.99968   0.02012
           Z           -0.01167  -0.02029   0.99973
 This molecule is an asymmetric top.
 Rotational symmetry number  1.
 Warning -- assumption of classical behavior for rotation
           may cause significant error
 Rotational temperatures (Kelvin)      0.04243     0.01670     0.01429
 Rotational constants (GHZ):           0.88408     0.34797     0.29775
 Zero-point vibrational energy     521465.8 (Joules/Mol)
                                  124.63331 (Kcal/Mol)
 Warning -- explicit consideration of  24 degrees of freedom as
           vibrations may cause significant error
 Vibrational temperatures:     84.33   100.36   128.79   187.92   210.94
          (Kelvin)            224.24   253.85   285.28   352.85   378.11
                              415.48   450.36   461.37   482.97   574.83
                              588.70   595.69   664.97   685.97   700.53
                              767.35   798.97   819.86   856.69   923.98
                              966.34  1019.24  1039.13  1106.28  1141.16
                             1171.12  1206.76  1230.93  1328.22  1342.82
                             1392.61  1469.58  1493.85  1510.05  1528.99
                             1536.30  1582.45  1606.61  1638.28  1683.69
                             1690.38  1766.71  1781.50  1845.02  1854.67
                             1872.70  1879.47  1936.94  1981.89  2001.59
                             2033.56  2044.19  2109.16  2118.81  2186.36
                             2217.36  2281.99  2361.10  2641.52  2821.81
                             4381.29  4463.13  4478.20  4486.29  4517.66
                             4522.43  4533.57  4535.87  4547.82  4554.01

 Zero-point correction=                           0.198616 (Hartree/Particle)
 Thermal correction to Energy=                    0.213264
 Thermal correction to Enthalpy=                  0.214208
 Thermal correction to Gibbs Free Energy=         0.157524
 Sum of electronic and zero-point Energies=           -794.220015
 Sum of electronic and thermal Energies=              -794.205367
 Sum of electronic and thermal Enthalpies=            -794.204423
 Sum of electronic and thermal Free Energies=         -794.261107

                     E (Thermal)             CV                S
                      KCal/Mol        Cal/Mol-Kelvin    Cal/Mol-Kelvin
 Total                  133.825             56.867            119.301
 Electronic               0.000              0.000              0.000
 Translational            0.889              2.981             42.202
 Rotational               0.889              2.981             32.529
 Vibrational            132.047             50.905             44.570
 Vibration     1          0.596              1.974              4.503
 Vibration     2          0.598              1.969              4.160
 Vibration     3          0.602              1.957              3.671
 Vibration     4          0.612              1.923              2.937
 Vibration     5          0.617              1.906              2.716
 Vibration     6          0.620              1.896              2.599
 Vibration     7          0.628              1.871              2.366
 Vibration     8          0.637              1.842              2.149
 Vibration     9          0.660              1.771              1.764
 Vibration    10          0.670              1.741              1.643
 Vibration    11          0.685              1.695              1.481
 Vibration    12          0.701              1.649              1.346
 Vibration    13          0.706              1.634              1.307
 Vibration    14          0.717              1.604              1.233
 Vibration    15          0.766              1.471              0.964
 Vibration    16          0.774              1.450              0.930
 Vibration    17          0.778              1.440              0.913
 Vibration    18          0.820              1.334              0.760
 Vibration    19          0.833              1.302              0.719
 Vibration    20          0.843              1.279              0.692
 Vibration    21          0.888              1.176              0.580
 Vibration    22          0.911              1.128              0.533
 Vibration    23          0.926              1.097              0.505
 Vibration    24          0.953              1.042              0.458

                           ! Non-Optimized Parameters !
 Normal termination of Gaussian 16 at Wed May 17 06:34:02 2023.
