 Gaussian 16, Revision A.03,
 Gaussian 16:  ES64L-G16RevA.03 25-Dec-2016

 -----------------------------
 # opt freq b3lyp/6-31g(2df,p)
 -----------------------------

 -------------------
 Title Card Required
 -------------------
 Symbolic Z-matrix:
 Charge =  0 Multiplicity = 1

 SCF Done:  E(RB3LYP) =  -615.354218614     A.U. after   23 cycles
 SCF Done:  E(RB3LYP) =  -614.766997499     A.U. after   22 cycles
 SCF Done:  E(RB3LYP) =  -615.473156091     A.U. after   16 cycles
 SCF Done:  E(RB3LYP) =  -615.525760975     A.U. after   15 cycles
 SCF Done:  E(RB3LYP) =  -615.574753629     A.U. after   15 cycles
 SCF Done:  E(RB3LYP) =  -615.636620212     A.U. after   15 cycles
 SCF Done:  E(RB3LYP) =  -615.696111668     A.U. after   16 cycles
 SCF Done:  E(RB3LYP) =  -615.720497240     A.U. after   16 cycles
 SCF Done:  E(RB3LYP) =  -615.738291791     A.U. after   15 cycles
 SCF Done:  E(RB3LYP) =  -615.747500857     A.U. after   15 cycles
 SCF Done:  E(RB3LYP) =  -615.826316571     A.U. after   10 cycles
 SCF Done:  E(RB3LYP) =  -615.826325425     A.U. after   11 cycles
 SCF Done:  E(RB3LYP) =  -615.826329177     A.U. after    9 cycles
 SCF Done:  E(RB3LYP) =  -615.826330667     A.U. after    8 cycles
 SCF Done:  E(RB3LYP) =  -615.826331661     A.U. after    8 cycles
 SCF Done:  E(RB3LYP) =  -615.826332182     A.U. after    8 cycles
 SCF Done:  E(RB3LYP) =  -615.826332543     A.U. after    8 cycles
 SCF Done:  E(RB3LYP) =  -615.826332810     A.U. after    7 cycles
 SCF Done:  E(RB3LYP) =  -615.826333016     A.U. after    7 cycles
 Optimization completed.
    -- Stationary point found.
 Normal termination of Gaussian 16 at Thu May 18 18:22:03 2023.

 ----------------------------------------------------------------------
 #N Geom=AllCheck Guess=TCheck SCRF=Check GenChk RB3LYP/6-31G(2df,p) Fr
 eq
 ----------------------------------------------------------------------

 Structure from the checkpoint file:  "CC1dCCdCCdC2CdCCdCqCdOrCdC12.chk"
 -------------------
 Title Card Required
 -------------------
 Charge =  0 Multiplicity = 1

                         Standard orientation:
 ---------------------------------------------------------------------
 Center     Atomic      Atomic             Coordinates (Angstroms)
 Number     Number       Type             X           Y           Z
 ---------------------------------------------------------------------
      1          6           0        0.576987   -2.769945   -0.135279
      2          6           0        1.226540   -1.404420   -0.052420
      3          6           0        2.589605   -1.408260   -0.150587
      4          6           0        3.578453   -0.373287   -0.142119
      5          6           0        3.399472    0.956455    0.037732
      6          6           0        2.156427    1.622730    0.264897
      7          6           0        0.888105    1.139990    0.271899
      8          6           0       -0.295104    1.988533    0.486611
      9          6           0       -1.127404    2.279601   -0.532929
     10          6           0       -2.420989    1.625506   -0.392572
     11          6           0       -2.277668    0.307209   -0.041394
     12          6           0       -3.541070   -0.479129    0.057771
     13          8           0       -3.613604   -1.664885    0.283774
     14          6           0       -1.039318   -0.483647    0.077519
     15          6           0        0.330394   -0.235548    0.091633
     16          1           0        1.331146   -3.553256   -0.223427
     17          1           0       -0.095316   -2.843715   -0.997487
     18          1           0       -0.029326   -2.980466    0.752993
     19          1           0        3.023841   -2.396999   -0.274947
     20          1           0        4.598356   -0.720080   -0.286450
     21          1           0        4.281731    1.590257    0.029792
     22          1           0        2.232900    2.692458    0.441422
     23          1           0       -0.778693    1.793189    1.445023
     24          1           0       -0.755318    2.505961   -1.531619
     25          1           0       -3.390670    2.037163   -0.660856
     26          1           0       -4.460501    0.127829   -0.094114
     27          1           0       -1.315896   -1.527985    0.084901
 ---------------------------------------------------------------------

 SCF Done:  E(RB3LYP) =  -615.826333016     A.U. after    1 cycles

 The electronic state is 1-A.
 Alpha  occ. eigenvalues --  -19.13436 -10.26392 -10.21666 -10.21653 -10.21578
 Alpha  occ. eigenvalues --  -10.20687 -10.20456 -10.19989 -10.19899 -10.19843
 Alpha  occ. eigenvalues --  -10.19637 -10.19225 -10.18857 -10.18405 -10.18075
 Alpha  occ. eigenvalues --   -1.03992  -0.87154  -0.83711  -0.80676  -0.78955
 Alpha  occ. eigenvalues --   -0.75611  -0.71650  -0.69245  -0.65835  -0.62515
 Alpha  occ. eigenvalues --   -0.60746  -0.57076  -0.54239  -0.53018  -0.50874
 Alpha  occ. eigenvalues --   -0.49222  -0.48119  -0.46365  -0.44187  -0.43006
 Alpha  occ. eigenvalues --   -0.42552  -0.42008  -0.41626  -0.40283  -0.39580
 Alpha  occ. eigenvalues --   -0.38688  -0.36996  -0.36245  -0.35876  -0.35440
 Alpha  occ. eigenvalues --   -0.32900  -0.31222  -0.28234  -0.27438  -0.25803
 Alpha  occ. eigenvalues --   -0.23500  -0.18510
 Alpha virt. eigenvalues --   -0.07946  -0.06558  -0.02833  -0.00503   0.07417
 Alpha virt. eigenvalues --    0.07921   0.11195   0.11554   0.11978   0.12622
 Alpha virt. eigenvalues --    0.13091   0.14257   0.15431   0.16221   0.16836

 Mulliken charges:
               1
     1  C   -0.490468
     2  C    0.246917
     3  C   -0.147169
     4  C   -0.105617
     5  C   -0.097127
     6  C   -0.208367
     7  C    0.196601
     8  C   -0.210567
     9  C   -0.127164
    10  C   -0.214292
    11  C    0.163133
    12  C    0.100946
    13  O   -0.273169
    14  C   -0.237448
    15  C    0.087058
    16  H    0.115261
    17  H    0.145638
    18  H    0.150383
    19  H    0.089272
    20  H    0.099078
    21  H    0.099842
    22  H    0.098301
    23  H    0.116121
    24  H    0.111177
    25  H    0.103217
    26  H    0.077417
    27  H    0.111025
 Sum of Mulliken charges =  -0.00000

 Dipole moment (field-independent basis, Debye):
    X=              2.4538    Y=              1.3986    Z=             -0.7566  Tot=              2.9240
 Quadrupole moment (field-independent basis, Debye-Ang):
   XX=            -83.2252   YY=            -86.0519   ZZ=            -87.5028
   XY=             -8.6070   XZ=              1.6702   YZ=              0.4003

  Exact polarizability: 259.059  -6.173 174.060   3.383  -2.514  76.853
 Approx polarizability: 480.563 -10.632 321.070  12.829  -8.707 139.170

                      1                      2                      3
                      A                      A                      A
 Frequencies --     21.3381                96.9188               125.5380
 Red. masses --      4.4754                 4.8417                 4.1708
 Frc consts  --      0.0012                 0.0268                 0.0387
 IR Inten    --      0.7255                 3.4256                 0.3270

                      4                      5                      6
                      A                      A                      A
 Frequencies --    153.4265               162.2622               220.9893
 Red. masses --      4.4093                 4.1797                 2.7490
 Frc consts  --      0.0612                 0.0648                 0.0791
 IR Inten    --      3.0778                 8.0641                 3.6387

                      7                      8                      9
                      A                      A                      A
 Frequencies --    254.3801               295.9798               313.7669
 Red. masses --      2.4047                 1.4342                 2.4305
 Frc consts  --      0.0917                 0.0740                 0.1410
 IR Inten    --      1.6499                 2.8342                 2.0384

                     10                     11                     12
                      A                      A                      A
 Frequencies --    324.5520               370.7891               379.7629
 Red. masses --      2.5448                 4.6804                 4.7709
 Frc consts  --      0.1579                 0.3791                 0.4054
 IR Inten    --      1.7718                 2.4592                 3.0155

                     13                     14                     15
                      A                      A                      A
 Frequencies --    400.4680               419.5009               466.4020
 Red. masses --      3.8460                 3.2961                 5.3029
 Frc consts  --      0.3634                 0.3418                 0.6797
 IR Inten    --      1.9335                 0.9507                11.8320

                     16                     17                     18
                      A                      A                      A
 Frequencies --    494.1849               515.5034               551.4021
 Red. masses --      3.6914                 4.5322                 4.1345
 Frc consts  --      0.5312                 0.7096                 0.7406
 IR Inten    --      2.3565                 4.2901                 1.8565

                     19                     20                     21
                      A                      A                      A
 Frequencies --    567.2809               612.7813               646.9152
 Red. masses --      2.8837                 3.1574                 5.3473
 Frc consts  --      0.5468                 0.6985                 1.3185
 IR Inten    --      2.7678                 0.4449                41.9048

                     22                     23                     24
                      A                      A                      A
 Frequencies --    671.0470               753.4268               764.2400
 Red. masses --      2.6707                 2.0703                 2.3437
 Frc consts  --      0.7086                 0.6924                 0.8065
 IR Inten    --      8.2044                19.9965                19.0175

                     25                     26                     27
                      A                      A                      A
 Frequencies --    778.8434               798.0830               819.8991
 Red. masses --      1.8626                 3.8038                 1.8944
 Frc consts  --      0.6657                 1.4274                 0.7503
 IR Inten    --     19.8141                18.5733                 0.7815

                     28                     29                     30
                      A                      A                      A
 Frequencies --    862.2907               892.7664               911.3667
 Red. masses --      3.1885                 1.5008                 4.0516
 Frc consts  --      1.3968                 0.7048                 1.9827
 IR Inten    --     26.1474                17.7102                 2.4359

                     31                     32                     33
                      A                      A                      A
 Frequencies --    924.1511               951.2289               965.4400
 Red. masses --      1.4974                 1.4269                 2.0461
 Frc consts  --      0.7535                 0.7607                 1.1236
 IR Inten    --      5.2568                 4.2990                 5.1411

                     34                     35                     36
                      A                      A                      A
 Frequencies --    984.1119               998.4510              1004.9845
 Red. masses --      1.6595                 1.3197                 2.6359
 Frc consts  --      0.9469                 0.7752                 1.5685
 IR Inten    --     10.2057                 2.4900                37.4894

                     37                     38                     39
                      A                      A                      A
 Frequencies --   1030.9313              1058.6523              1081.3177
 Red. masses --      1.8617                 1.5800                 1.8675
 Frc consts  --      1.1658                 1.0433                 1.2865
 IR Inten    --      0.6353                 1.7898                12.0579

                     40                     41                     42
                      A                      A                      A
 Frequencies --   1092.6022              1125.7027              1147.7060
 Red. masses --      1.8622                 2.8522                 3.1438
 Frc consts  --      1.3098                 2.1295                 2.4399
 IR Inten    --      3.2152                 4.2889                47.0890

                     43                     44                     45
                      A                      A                      A
 Frequencies --   1173.8035              1247.9083              1258.8407
 Red. masses --      2.5820                 2.5734                 1.4052
 Frc consts  --      2.0961                 2.3612                 1.3120
 IR Inten    --      6.1762                 3.9492                11.8363

                     46                     47                     48
                      A                      A                      A
 Frequencies --   1282.2046              1329.7734              1356.2793
 Red. masses --      1.3333                 2.0777                 1.3635
 Frc consts  --      1.2915                 2.1647                 1.4778
 IR Inten    --     29.0963                 6.8039                 0.3435

                     49                     50                     51
                      A                      A                      A
 Frequencies --   1364.5084              1395.9838              1413.0456
 Red. masses --      1.3828                 1.5692                 1.3950
 Frc consts  --      1.5169                 1.8017                 1.6411
 IR Inten    --      4.9230                23.0011                 2.9956

                     52                     53                     54
                      A                      A                      A
 Frequencies --   1424.6015              1426.6756              1476.1478
 Red. masses --      1.4258                 1.2481                 1.5891
 Frc consts  --      1.7048                 1.4967                 2.0402
 IR Inten    --      0.3203                 0.8326                 0.8567

                     55                     56                     57
                      A                      A                      A
 Frequencies --   1480.3307              1500.6953              1504.0873
 Red. masses --      1.0700                 2.4727                 1.3325
 Frc consts  --      1.3814                 3.2809                 1.7760
 IR Inten    --      6.8016               191.6774                34.6422

                     58                     59                     60
                      A                      A                      A
 Frequencies --   1576.0911              1593.0575              1614.6942
 Red. masses --      3.0766                 6.8197                 5.7068
 Frc consts  --      4.5028                10.1971                 8.7664
 IR Inten    --      7.5789                60.3289                12.7871

                     61                     62                     63
                      A                      A                      A
 Frequencies --   1639.1709              1681.4879              1792.9205
 Red. masses --      6.2687                 4.8606                10.5074
 Frc consts  --      9.9238                 8.0971                19.9007
 IR Inten    --      4.6018                 8.5209               223.9260

                     64                     65                     66
                      A                      A                      A
 Frequencies --   2889.0793              3029.9295              3081.8591
 Red. masses --      1.0831                 1.0385                 1.0985
 Frc consts  --      5.3264                 5.6174                 6.1471
 IR Inten    --    144.4895                11.9859                 9.3537

                     67                     68                     69
                      A                      A                      A
 Frequencies --   3096.1478              3124.7560              3125.9458
 Red. masses --      1.0845                 1.0866                 1.0985
 Frc consts  --      6.1253                 6.2508                 6.3241
 IR Inten    --      8.2332                10.3524                 8.1609

                     70                     71                     72
                      A                      A                      A
 Frequencies --   3143.9982              3152.7103              3154.6982
 Red. masses --      1.0836                 1.0857                 1.0900
 Frc consts  --      6.3108                 6.3583                 6.3913
 IR Inten    --     14.9666                 1.1743                14.5399

                     73                     74                     75
                      A                      A                      A
 Frequencies --   3162.1333              3178.6201              3234.6831
 Red. masses --      1.0880                 1.0942                 1.0823
 Frc consts  --      6.4100                 6.5134                 6.6722
 IR Inten    --     27.8433                29.8509                14.5942

 - Thermochemistry -
 -------------------
 Temperature   298.150 Kelvin.  Pressure   1.00000 Atm.
 Atom     1 has atomic number  6 and mass  12.00000

 Molecular mass:   196.08882 amu.
 Principal axes and moments of inertia in atomic units:
                           1         2         3
     Eigenvalues --  1690.888613900.043245455.03137
           X            0.99985  -0.01751   0.00119
           Y            0.01750   0.99985   0.00173
           Z           -0.00122  -0.00171   1.00000
 This molecule is an asymmetric top.
 Rotational symmetry number  1.
 Warning -- assumption of classical behavior for rotation
           may cause significant error
 Rotational temperatures (Kelvin)      0.05122     0.02221     0.01588
 Rotational constants (GHZ):           1.06733     0.46275     0.33084
 Zero-point vibrational energy     567737.2 (Joules/Mol)
                                  135.69246 (Kcal/Mol)
 Warning -- explicit consideration of  20 degrees of freedom as
           vibrations may cause significant error
 Vibrational temperatures:     30.70   139.44   180.62   220.75   233.46
          (Kelvin)            317.95   366.00   425.85   451.44   466.96
                              533.48   546.39   576.18   603.57   671.05
                              711.02   741.69   793.34   816.19   881.66
                              930.77   965.49  1084.01  1099.57  1120.58
                             1148.26  1179.65  1240.64  1284.49  1311.25
                             1329.65  1368.61  1389.05  1415.92  1436.55
                             1445.95  1483.28  1523.16  1555.78  1572.01
                             1619.64  1651.29  1688.84  1795.46  1811.19
                             1844.81  1913.25  1951.38  1963.22  2008.51
                             2033.06  2049.68  2052.67  2123.85  2129.87
                             2159.17  2164.05  2267.64  2292.05  2323.18
                             2358.40  2419.29  2579.61  4156.74  4359.39
                             4434.11  4454.67  4495.83  4497.54  4523.51
                             4536.05  4538.91  4549.60  4573.33  4653.99

 Zero-point correction=                           0.216240 (Hartree/Particle)
 Thermal correction to Energy=                    0.228769
 Thermal correction to Enthalpy=                  0.229713
 Thermal correction to Gibbs Free Energy=         0.177097
 Sum of electronic and zero-point Energies=           -615.610093
 Sum of electronic and thermal Energies=              -615.597564
 Sum of electronic and thermal Enthalpies=            -615.596620
 Sum of electronic and thermal Free Energies=         -615.649236

                     E (Thermal)             CV                S
                      KCal/Mol        Cal/Mol-Kelvin    Cal/Mol-Kelvin
 Total                  143.555             50.187            110.740
 Electronic               0.000              0.000              0.000
 Translational            0.889              2.981             41.725
 Rotational               0.889              2.981             31.953
 Vibrational            141.777             44.225             37.061
 Vibration     1          0.593              1.985              6.506
 Vibration     2          0.603              1.951              3.515
 Vibration     3          0.610              1.928              3.013
 Vibration     4          0.619              1.899              2.629
 Vibration     5          0.622              1.889              2.523
 Vibration     6          0.648              1.809              1.951
 Vibration     7          0.665              1.755              1.700
 Vibration     8          0.690              1.681              1.440
 Vibration     9          0.702              1.647              1.342
 Vibration    10          0.709              1.626              1.287
 Vibration    11          0.743              1.532              1.077
 Vibration    12          0.750              1.513              1.040
 Vibration    13          0.766              1.469              0.961
 Vibration    14          0.782              1.428              0.894
 Vibration    15          0.824              1.325              0.748
 Vibration    16          0.850              1.263              0.673
 Vibration    17          0.871              1.216              0.620
 Vibration    18          0.907              1.137              0.541
 Vibration    19          0.923              1.102              0.509
 Vibration    20          0.972              1.005              0.428

                           ! Non-Optimized Parameters !
 Normal termination of Gaussian 16 at Thu May 18 20:16:33 2023.
