 Gaussian 16, Revision A.03,
 Gaussian 16:  ES64L-G16RevA.03 25-Dec-2016

 -----------------------------
 # opt freq b3lyp/6-31g(2df,p)
 -----------------------------

 -------------------
 Title Card Required
 -------------------
 Symbolic Z-matrix:
 Charge =  0 Multiplicity = 1

 SCF Done:  E(RB3LYP) =  -877.868307013     A.U. after   29 cycles
 SCF Done:  E(RB3LYP) =  -877.955137122     A.U. after   25 cycles
 SCF Done:  E(RB3LYP) =  -878.039445057     A.U. after   22 cycles
 SCF Done:  E(RB3LYP) =  -878.059831582     A.U. after   28 cycles
 SCF Done:  E(RB3LYP) =  -878.163140144     A.U. after   22 cycles
 SCF Done:  E(RB3LYP) =  -878.173078100     A.U. after   22 cycles
 SCF Done:  E(RB3LYP) =  -878.191506435     A.U. after   20 cycles
 SCF Done:  E(RB3LYP) =  -878.203059254     A.U. after   24 cycles
 SCF Done:  E(RB3LYP) =  -878.261403448     A.U. after   19 cycles
 SCF Done:  E(RB3LYP) =  -876.104555356     A.U. after   23 cycles
 SCF Done:  E(RB3LYP) =  -878.580230859     A.U. after    9 cycles
 SCF Done:  E(RB3LYP) =  -878.580241385     A.U. after    9 cycles
 SCF Done:  E(RB3LYP) =  -878.580252015     A.U. after    9 cycles
 SCF Done:  E(RB3LYP) =  -878.580259402     A.U. after    9 cycles
 SCF Done:  E(RB3LYP) =  -878.580265600     A.U. after    9 cycles
 SCF Done:  E(RB3LYP) =  -878.580268145     A.U. after    8 cycles
 SCF Done:  E(RB3LYP) =  -878.580269736     A.U. after    9 cycles
 SCF Done:  E(RB3LYP) =  -878.580270639     A.U. after    8 cycles
 SCF Done:  E(RB3LYP) =  -878.580270938     A.U. after    8 cycles
 Optimization completed.
    -- Stationary point found.
 Normal termination of Gaussian 16 at Fri May 19 05:39:45 2023.

 ----------------------------------------------------------------------
 #N Geom=AllCheck Guess=TCheck SCRF=Check GenChk RB3LYP/6-31G(2df,p) Fr
 eq
 ----------------------------------------------------------------------

 Structure from the checkpoint file:  "CC1dCqSrCdCdCCdCCdCNdC1.chk"
 -------------------
 Title Card Required
 -------------------
 Charge =  0 Multiplicity = 1

                         Standard orientation:
 ---------------------------------------------------------------------
 Center     Atomic      Atomic             Coordinates (Angstroms)
 Number     Number       Type             X           Y           Z
 ---------------------------------------------------------------------
      1          6           0       -1.193410   -2.202847    0.581865
      2          6           0       -0.911750   -0.944253   -0.197884
      3          6           0       -1.760497    0.114157   -0.262879
      4         16           0       -3.425117    0.111786    0.374764
      5          6           0       -1.357764    1.453354   -0.778789
      6          6           0       -0.305500    2.014759   -0.231774
      7          6           0        0.822944    2.198614    0.408758
      8          6           0        2.017271    1.456347   -0.030052
      9          6           0        2.770145    0.714785    0.795358
     10          6           0        3.546593   -0.473067    0.302401
     11          6           0        2.628043   -1.600529   -0.256244
     12          7           0        1.478429   -1.313738   -0.556244
     13          6           0        0.340579   -0.896401   -0.967499
     14          1           0       -1.805505   -2.001613    1.464808
     15          1           0       -0.253571   -2.658829    0.906517
     16          1           0       -1.713733   -2.953487   -0.028195
     17          1           0       -3.695350   -1.199596    0.234027
     18          1           0       -1.962347    1.934740   -1.544852
     19          1           0        0.839909    2.729656    1.359128
     20          1           0        2.137633    1.341159   -1.104089
     21          1           0        2.609795    0.788562    1.869754
     22          1           0        4.196727   -0.229694   -0.548010
     23          1           0        4.195662   -0.905810    1.065995
     24          1           0        0.323720   -0.447001   -1.957161
 ---------------------------------------------------------------------

 SCF Done:  E(RB3LYP) =  -878.580270938     A.U. after    1 cycles

 The electronic state is 1-A.
 Alpha  occ. eigenvalues --  -88.88499 -14.38144 -10.23150 -10.22728 -10.21318
 Alpha  occ. eigenvalues --  -10.20960 -10.20805 -10.20640 -10.20532 -10.20279
 Alpha  occ. eigenvalues --  -10.19541 -10.18838 -10.18794  -7.95002  -5.91452
 Alpha  occ. eigenvalues --   -5.91079  -5.90581  -0.96906  -0.85148  -0.82581
 Alpha  occ. eigenvalues --   -0.78483  -0.77638  -0.73268  -0.72366  -0.67164
 Alpha  occ. eigenvalues --   -0.66269  -0.56970  -0.56672  -0.53358  -0.51412
 Alpha  occ. eigenvalues --   -0.48939  -0.47411  -0.46950  -0.45490  -0.44373
 Alpha  occ. eigenvalues --   -0.42646  -0.41901  -0.40300  -0.38853  -0.38811
 Alpha  occ. eigenvalues --   -0.37217  -0.36591  -0.35316  -0.31260  -0.31039
 Alpha  occ. eigenvalues --   -0.29881  -0.27031  -0.24493  -0.22600  -0.18249
 Alpha virt. eigenvalues --   -0.04773  -0.02001   0.00194   0.00525   0.03036
 Alpha virt. eigenvalues --    0.04508   0.05453   0.08931   0.11010   0.11774
 Alpha virt. eigenvalues --    0.12452   0.13395   0.14838   0.15392   0.16031

 Mulliken charges:
               1
     1  C   -0.500148
     2  C    0.154360
     3  C    0.137201
     4  S   -0.254565
     5  C   -0.379980
     6  C    0.315597
     7  C   -0.286908
     8  C   -0.053300
     9  C   -0.076233
    10  C   -0.300999
    11  C   -0.152769
    12  N    0.137843
    13  C   -0.160166
    14  H    0.139386
    15  H    0.144066
    16  H    0.133536
    17  H    0.159289
    18  H    0.126345
    19  H    0.126563
    20  H    0.096248
    21  H    0.089833
    22  H    0.143633
    23  H    0.129921
    24  H    0.131248
 Sum of Mulliken charges =  -0.00000

 Dipole moment (field-independent basis, Debye):
    X=              0.1791    Y=              0.1369    Z=             -0.0330  Tot=              0.2278
 Quadrupole moment (field-independent basis, Debye-Ang):
   XX=            -84.4821   YY=            -85.8384   ZZ=            -80.3889
   XY=              7.5425   XZ=              2.4224   YZ=             -1.4297

  Exact polarizability: 228.603 -17.511 136.134  13.091  -0.704  99.265
 Approx polarizability: 413.826 -64.042 236.863  48.972  -7.414 175.311

                      1                      2                      3
                      A                      A                      A
 Frequencies --     70.2105                98.0062               124.5980
 Red. masses --      5.6236                 3.6178                 4.1303
 Frc consts  --      0.0163                 0.0205                 0.0378
 IR Inten    --      0.0532                 1.0247                 0.2042

                      4                      5                      6
                      A                      A                      A
 Frequencies --    135.2288               173.4663               182.4658
 Red. masses --      1.1421                 3.2235                 3.5233
 Frc consts  --      0.0123                 0.0571                 0.0691
 IR Inten    --      0.8464                 1.8571                12.0552

                      7                      8                      9
                      A                      A                      A
 Frequencies --    196.8501               214.3093               234.9001
 Red. masses --      4.0075                 2.2659                 2.3299
 Frc consts  --      0.0915                 0.0613                 0.0757
 IR Inten    --      2.9374                 3.7782                 0.5057

                     10                     11                     12
                      A                      A                      A
 Frequencies --    270.5859               305.5242               307.6740
 Red. masses --      2.5748                 3.3482                 1.5396
 Frc consts  --      0.1111                 0.1841                 0.0859
 IR Inten    --      0.8695                 0.8289                10.5400

                     13                     14                     15
                      A                      A                      A
 Frequencies --    353.3807               370.9551               401.7191
 Red. masses --      4.9541                 4.1300                 4.4860
 Frc consts  --      0.3645                 0.3348                 0.4265
 IR Inten    --      1.1329                 7.3432                 4.6443

                     16                     17                     18
                      A                      A                      A
 Frequencies --    427.3872               476.8987               499.3160
 Red. masses --      3.3468                 4.1996                 4.1170
 Frc consts  --      0.3602                 0.5627                 0.6048
 IR Inten    --     28.2693                 3.6118                 5.7613

                     19                     20                     21
                      A                      A                      A
 Frequencies --    529.6260               572.6680               627.2717
 Red. masses --      4.7938                 3.9601                 4.0931
 Frc consts  --      0.7923                 0.7652                 0.9489
 IR Inten    --      1.4465                33.0586                 5.8083

                     22                     23                     24
                      A                      A                      A
 Frequencies --    668.3330               729.3025               763.3484
 Red. masses --      4.7356                 2.9196                 2.0130
 Frc consts  --      1.2463                 0.9149                 0.6911
 IR Inten    --     62.7057                20.6741                24.4635

                     25                     26                     27
                      A                      A                      A
 Frequencies --    783.5637               798.4197               855.4459
 Red. masses --      1.8238                 4.4910                 2.2689
 Frc consts  --      0.6597                 1.6868                 0.9783
 IR Inten    --     15.7060                37.7829                32.8339

                     28                     29                     30
                      A                      A                      A
 Frequencies --    880.9744               886.5105               900.0212
 Red. masses --      1.8494                 1.3843                 1.9107
 Frc consts  --      0.8457                 0.6410                 0.9119
 IR Inten    --     10.2516                 9.4251                 2.9416

                     31                     32                     33
                      A                      A                      A
 Frequencies --    930.3993              1010.2659              1017.7664
 Red. masses --      1.8383                 1.2477                 1.9893
 Frc consts  --      0.9376                 0.7503                 1.2141
 IR Inten    --     12.5788                25.7062                61.3139

                     34                     35                     36
                      A                      A                      A
 Frequencies --   1038.8841              1049.2173              1063.0530
 Red. masses --      2.1338                 1.5586                 2.4349
 Frc consts  --      1.3569                 1.0109                 1.6212
 IR Inten    --     15.5344                 5.4445                 3.4277

                     37                     38                     39
                      A                      A                      A
 Frequencies --   1113.0183              1139.1045              1182.7707
 Red. masses --      2.6953                 1.6734                 1.2792
 Frc consts  --      1.9672                 1.2793                 1.0543
 IR Inten    --      1.8100                 4.7788                 2.3097

                     40                     41                     42
                      A                      A                      A
 Frequencies --   1218.7340              1248.2928              1273.5285
 Red. masses --      3.1586                 1.2398                 1.5497
 Frc consts  --      2.7641                 1.1383                 1.4808
 IR Inten    --      4.5950                 0.6002                 0.7657

                     43                     44                     45
                      A                      A                      A
 Frequencies --   1298.7367              1319.5954              1338.3015
 Red. masses --      1.4452                 1.3255                 1.2976
 Frc consts  --      1.4362                 1.3599                 1.3693
 IR Inten    --      2.8898                 2.1426                 4.6639

                     46                     47                     48
                      A                      A                      A
 Frequencies --   1404.9386              1417.7562              1448.5617
 Red. masses --      1.2926                 2.5604                 1.2766
 Frc consts  --      1.5033                 3.0323                 1.5783
 IR Inten    --      3.0993                 8.2974                 3.0420

                     49                     50                     51
                      A                      A                      A
 Frequencies --   1466.0427              1483.2885              1490.5171
 Red. masses --      1.9008                 1.0796                 1.0903
 Frc consts  --      2.4071                 1.3994                 1.4271
 IR Inten    --      6.4117                 7.1667                 8.7019

                     52                     53                     54
                      A                      A                      A
 Frequencies --   1607.9847              1672.4659              1951.5096
 Red. masses --      7.1873                 5.7769                12.1621
 Frc consts  --     10.9492                 9.5205                27.2897
 IR Inten    --      8.3124                 4.4477               274.8265

                     55                     56                     57
                      A                      A                      A
 Frequencies --   2003.0376              2671.3174              3017.2800
 Red. masses --     10.6781                 1.0385                 1.0451
 Frc consts  --     25.2420                 4.3660                 5.6060
 IR Inten    --     21.4288                 4.7039                20.3748

                     58                     59                     60
                      A                      A                      A
 Frequencies --   3036.9724              3083.4749              3107.7742
 Red. masses --      1.0691                 1.0881                 1.0923
 Frc consts  --      5.8097                 6.0951                 6.2157
 IR Inten    --     14.0682                 9.6927                15.6521

                     61                     62                     63
                      A                      A                      A
 Frequencies --   3120.0843              3134.1539              3136.2887
 Red. masses --      1.1021                 1.0884                 1.0875
 Frc consts  --      6.3212                 6.2992                 6.3025
 IR Inten    --      5.4330                11.9809                 5.9241

                     64                     65                     66
                      A                      A                      A
 Frequencies --   3140.2264              3145.2025              3159.0305
 Red. masses --      1.0902                 1.0853                 1.0870
 Frc consts  --      6.3342                 6.3253                 6.3915
 IR Inten    --     16.0792                 6.1367                14.7386

 - Thermochemistry -
 -------------------
 Temperature   298.150 Kelvin.  Pressure   1.00000 Atm.
 Atom     1 has atomic number  6 and mass  12.00000

 Molecular mass:   189.06122 amu.
 Principal axes and moments of inertia in atomic units:
                           1         2         3
     Eigenvalues --  1422.843083611.785924591.19827
           X            0.99979   0.01987   0.00485
           Y           -0.01979   0.99966  -0.01722
           Z           -0.00519   0.01712   0.99984
 This molecule is an asymmetric top.
 Rotational symmetry number  1.
 Warning -- assumption of classical behavior for rotation
           may cause significant error
 Rotational temperatures (Kelvin)      0.06087     0.02398     0.01887
 Rotational constants (GHZ):           1.26840     0.49968     0.39309
 Zero-point vibrational energy     483162.9 (Joules/Mol)
                                  115.47872 (Kcal/Mol)
 Warning -- explicit consideration of  20 degrees of freedom as
           vibrations may cause significant error
 Vibrational temperatures:    101.02   141.01   179.27   194.56   249.58
          (Kelvin)            262.53   283.22   308.34   337.97   389.31
                              439.58   442.67   508.44   533.72   577.98
                              614.91   686.15   718.40   762.01   823.94
                              902.50   961.58  1049.30  1098.29  1127.37
                             1148.75  1230.80  1267.53  1275.49  1294.93
                             1338.64  1453.55  1464.34  1494.72  1509.59
                             1529.50  1601.39  1638.92  1701.74  1753.49
                             1796.01  1832.32  1868.59  1898.60  1925.52
                             2021.39  2039.83  2084.16  2109.31  2134.12
                             2144.52  2313.53  2406.31  2807.79  2881.92
                             3843.43  4341.19  4369.53  4436.43  4471.39
                             4489.11  4509.35  4512.42  4518.09  4525.24
                             4545.14

 Zero-point correction=                           0.184027 (Hartree/Particle)
 Thermal correction to Energy=                    0.197214
 Thermal correction to Enthalpy=                  0.198158
 Thermal correction to Gibbs Free Energy=         0.145164
 Sum of electronic and zero-point Energies=           -878.396244
 Sum of electronic and thermal Energies=              -878.383057
 Sum of electronic and thermal Enthalpies=            -878.382112
 Sum of electronic and thermal Free Energies=         -878.435107

                     E (Thermal)             CV                S
                      KCal/Mol        Cal/Mol-Kelvin    Cal/Mol-Kelvin
 Total                  123.754             50.060            111.536
 Electronic               0.000              0.000              0.000
 Translational            0.889              2.981             41.616
 Rotational               0.889              2.981             31.534
 Vibrational            121.976             44.099             38.385
 Vibration     1          0.598              1.968              4.147
 Vibration     2          0.603              1.951              3.494
 Vibration     3          0.610              1.928              3.028
 Vibration     4          0.613              1.918              2.870
 Vibration     5          0.627              1.875              2.398
 Vibration     6          0.630              1.864              2.303
 Vibration     7          0.636              1.844              2.162
 Vibration     8          0.644              1.819              2.007
 Vibration     9          0.655              1.787              1.841
 Vibration    10          0.674              1.727              1.592
 Vibration    11          0.696              1.663              1.386
 Vibration    12          0.698              1.659              1.375
 Vibration    13          0.730              1.568              1.151
 Vibration    14          0.743              1.532              1.076
 Vibration    15          0.767              1.466              0.956
 Vibration    16          0.789              1.411              0.867
 Vibration    17          0.833              1.301              0.718
 Vibration    18          0.855              1.252              0.660
 Vibration    19          0.885              1.184              0.588
 Vibration    20          0.929              1.090              0.499

                           ! Non-Optimized Parameters !
 Normal termination of Gaussian 16 at Fri May 19 06:54:11 2023.
