 Gaussian 16, Revision A.03,
 Gaussian 16:  ES64L-G16RevA.03 25-Dec-2016

 -----------------------------
 # opt freq b3lyp/6-31g(2df,p)
 -----------------------------

 -------------------
 Title Card Required
 -------------------
 Symbolic Z-matrix:
 Charge =  0 Multiplicity = 1

 SCF Done:  E(RB3LYP) =  -688.126654385     A.U. after   13 cycles
 SCF Done:  E(RB3LYP) =  -688.149644489     A.U. after   12 cycles
 SCF Done:  E(RB3LYP) =  -688.166219174     A.U. after   12 cycles
 SCF Done:  E(RB3LYP) =  -688.175545994     A.U. after   12 cycles
 SCF Done:  E(RB3LYP) =  -688.179147462     A.U. after   12 cycles
 SCF Done:  E(RB3LYP) =  -688.181190425     A.U. after   12 cycles
 SCF Done:  E(RB3LYP) =  -688.183062717     A.U. after   11 cycles
 SCF Done:  E(RB3LYP) =  -688.185261898     A.U. after   12 cycles
 SCF Done:  E(RB3LYP) =  -688.190196628     A.U. after   13 cycles
 SCF Done:  E(RB3LYP) =  -688.193905530     A.U. after   12 cycles
 SCF Done:  E(RB3LYP) =  -688.201771027     A.U. after   11 cycles
 SCF Done:  E(RB3LYP) =  -688.201788046     A.U. after    9 cycles
 SCF Done:  E(RB3LYP) =  -688.201793117     A.U. after    9 cycles
 SCF Done:  E(RB3LYP) =  -688.201793681     A.U. after    7 cycles
 SCF Done:  E(RB3LYP) =  -688.201793822     A.U. after    7 cycles
 SCF Done:  E(RB3LYP) =  -688.201793848     A.U. after    6 cycles
 SCF Done:  E(RB3LYP) =  -688.201793844     A.U. after    6 cycles
 SCF Done:  E(RB3LYP) =  -688.201793835     A.U. after    6 cycles
 SCF Done:  E(RB3LYP) =  -688.201793820     A.U. after    6 cycles
 Optimization completed.
    -- Stationary point found.
 Normal termination of Gaussian 16 at Fri May 19 00:10:33 2023.

 ----------------------------------------------------------------------
 #N Geom=AllCheck Guess=TCheck SCRF=Check GenChk RB3LYP/6-31G(2df,p) Fr
 eq
 ----------------------------------------------------------------------

 Structure from the checkpoint file:  "CC1dCCdCCdCCdC1CCqCrNNNN.chk"
 -------------------
 Title Card Required
 -------------------
 Charge =  0 Multiplicity = 1

                         Standard orientation:
 ---------------------------------------------------------------------
 Center     Atomic      Atomic             Coordinates (Angstroms)
 Number     Number       Type             X           Y           Z
 ---------------------------------------------------------------------
      1          6           0        1.080738   -2.071123    1.297800
      2          6           0        1.809798   -1.152551    0.342965
      3          6           0        2.999552   -1.520708   -0.152887
      4          6           0        3.877331   -0.802263   -1.085467
      5          6           0        4.383896    0.427938   -0.927209
      6          6           0        4.114801    1.351337    0.179074
      7          6           0        2.911826    1.715254    0.640230
      8          6           0        1.608600    1.324240    0.081394
      9          6           0        1.097021    0.094908   -0.069502
     10          6           0       -0.284334   -0.080301   -0.686516
     11          6           0       -1.493283   -0.028999    0.280035
     12          6           0       -1.697413    1.358372    0.890376
     13          7           0       -2.676851   -0.443143   -0.494220
     14          7           0       -3.856301   -0.708826    0.270980
     15          7           0       -4.810432    0.352950    0.221036
     16          7           0       -5.514543    0.367807   -1.014220
     17          1           0        1.698421   -2.934466    1.557425
     18          1           0        0.143833   -2.448540    0.871027
     19          1           0        0.817163   -1.548857    2.225290
     20          1           0        3.374448   -2.503267    0.139777
     21          1           0        4.240218   -1.392118   -1.927216
     22          1           0        5.124334    0.768823   -1.650178
     23          1           0        4.992735    1.825293    0.617137
     24          1           0        2.875674    2.469119    1.426694
     25          1           0        0.984571    2.166467   -0.222724
     26          1           0       -0.310919   -1.041855   -1.215793
     27          1           0       -0.439958    0.693155   -1.446099
     28          1           0       -1.315963   -0.735928    1.109492
     29          1           0       -1.891043    2.100164    0.108027
     30          1           0       -0.808505    1.662534    1.448004
     31          1           0       -2.538988    1.364607    1.590122
     32          1           0       -2.457942   -1.301536   -0.990249
     33          1           0       -3.624899   -0.837952    1.255575
     34          1           0       -4.322764    1.246791    0.248753
     35          1           0       -6.135551   -0.436892   -0.997321
     36          1           0       -4.849182    0.206330   -1.774512
 ---------------------------------------------------------------------

 SCF Done:  E(RB3LYP) =  -688.201793820     A.U. after    1 cycles

 The electronic state is 1-A.
 Alpha  occ. eigenvalues --  -14.35926 -14.35354 -14.34203 -14.32117 -10.22210
 Alpha  occ. eigenvalues --  -10.19704 -10.19678 -10.19231 -10.18845 -10.18767
 Alpha  occ. eigenvalues --  -10.18710 -10.18653 -10.18589 -10.18563 -10.18343
 Alpha  occ. eigenvalues --  -10.17986  -1.00924  -0.91942  -0.84683  -0.81885
 Alpha  occ. eigenvalues --   -0.79451  -0.78344  -0.75164  -0.72554  -0.70041
 Alpha  occ. eigenvalues --   -0.67731  -0.66221  -0.63287  -0.58871  -0.56705
 Alpha  occ. eigenvalues --   -0.54753  -0.51136  -0.50206  -0.49930  -0.49030
 Alpha  occ. eigenvalues --   -0.47416  -0.46404  -0.45255  -0.44522  -0.44215
 Alpha  occ. eigenvalues --   -0.43641  -0.42694  -0.42129  -0.40723  -0.39495
 Alpha  occ. eigenvalues --   -0.39412  -0.38345  -0.36371  -0.35608  -0.34970
 Alpha  occ. eigenvalues --   -0.34208  -0.32543  -0.30358  -0.26761  -0.26267
 Alpha  occ. eigenvalues --   -0.25776  -0.25444  -0.23441  -0.22992  -0.20970
 Alpha virt. eigenvalues --   -0.03990   0.02226   0.02796   0.06857   0.07899
 Alpha virt. eigenvalues --    0.09176   0.09826   0.10372   0.11082   0.12177
 Alpha virt. eigenvalues --    0.12562   0.13215   0.14302   0.14557   0.15411

 Mulliken charges:
               1
     1  C   -0.478199
     2  C    0.207262
     3  C   -0.166171
     4  C   -0.119356
     5  C   -0.094704
     6  C   -0.088720
     7  C   -0.126806
     8  C   -0.158493
     9  C    0.187049
    10  C   -0.323983
    11  C    0.059557
    12  C   -0.386395
    13  N   -0.278885
    14  N   -0.272238
    15  N   -0.230817
    16  N   -0.437457
    17  H    0.122204
    18  H    0.125434
    19  H    0.128166
    20  H    0.087073
    21  H    0.092729
    22  H    0.094117
    23  H    0.094841
    24  H    0.093697
    25  H    0.091677
    26  H    0.097414
    27  H    0.121672
    28  H    0.065456
    29  H    0.120310
    30  H    0.124000
    31  H    0.118189
    32  H    0.227889
    33  H    0.222493
    34  H    0.225145
    35  H    0.236180
    36  H    0.219671
 Sum of Mulliken charges =  -0.00000

 Dipole moment (field-independent basis, Debye):
    X=              2.6330    Y=             -1.0404    Z=              0.2179  Tot=              2.8394
 Quadrupole moment (field-independent basis, Debye-Ang):
   XX=           -114.1029   YY=            -93.1262   ZZ=            -94.7250
   XY=              5.5811   XZ=             -0.3788   YZ=              2.4432

  Exact polarizability: 213.013   6.882 151.165 -10.971   6.570 121.465
 Approx polarizability: 279.466  10.607 252.032 -23.073  16.676 196.200

                      1                      2                      3
                      A                      A                      A
 Frequencies --     26.9303                44.5930                52.1857
 Red. masses --      3.7511                 4.3535                 3.8867
 Frc consts  --      0.0016                 0.0051                 0.0062
 IR Inten    --      0.2475                 0.9144                 0.4858

                      4                      5                      6
                      A                      A                      A
 Frequencies --     78.7435                91.7715               125.0986
 Red. masses --      3.3263                 3.5565                 3.2089
 Frc consts  --      0.0122                 0.0176                 0.0296
 IR Inten    --      1.7114                 0.1842                 1.8551

                      7                      8                      9
                      A                      A                      A
 Frequencies --    140.9652               154.0837               202.9855
 Red. masses --      3.2249                 3.8466                 2.4017
 Frc consts  --      0.0378                 0.0538                 0.0583
 IR Inten    --      2.5650                 0.9007                 0.4084

                     10                     11                     12
                      A                      A                      A
 Frequencies --    225.9339               237.2268               260.0802
 Red. masses --      3.1599                 1.5391                 3.0400
 Frc consts  --      0.0950                 0.0510                 0.1212
 IR Inten    --      1.3098                 1.7047                 1.9165

                     13                     14                     15
                      A                      A                      A
 Frequencies --    262.5656               293.6056               298.6778
 Red. masses --      1.9381                 1.3630                 2.8523
 Frc consts  --      0.0787                 0.0692                 0.1499
 IR Inten    --      0.8638                 0.3420                 1.8869

                     16                     17                     18
                      A                      A                      A
 Frequencies --    320.8624               333.1724               365.8028
 Red. masses --      2.4806                 2.6734                 2.0178
 Frc consts  --      0.1505                 0.1748                 0.1591
 IR Inten    --      1.0357                 2.5572                 1.3435

                     19                     20                     21
                      A                      A                      A
 Frequencies --    381.5294               424.1152               453.6617
 Red. masses --      1.8094                 2.0234                 2.2748
 Frc consts  --      0.1552                 0.2144                 0.2758
 IR Inten    --      8.5261                15.8554                12.2702

                     22                     23                     24
                      A                      A                      A
 Frequencies --    464.1823               520.3891               551.4711
 Red. masses --      2.7983                 2.4439                 2.9797
 Frc consts  --      0.3552                 0.3899                 0.5339
 IR Inten    --      3.0768                17.3989                10.1958

                     25                     26                     27
                      A                      A                      A
 Frequencies --    589.3449               640.4491               658.9476
 Red. masses --      2.2012                 3.1822                 3.5255
 Frc consts  --      0.4504                 0.7690                 0.9019
 IR Inten    --     40.4787                19.3792                15.8211

                     28                     29                     30
                      A                      A                      A
 Frequencies --    665.0722               713.6118               731.5582
 Red. masses --      2.7286                 3.0093                 1.7876
 Frc consts  --      0.7111                 0.9029                 0.5637
 IR Inten    --      4.2366                10.4727                28.1116

                     31                     32                     33
                      A                      A                      A
 Frequencies --    773.0058               801.2754               811.6122
 Red. masses --      2.6271                 2.1889                 2.1765
 Frc consts  --      0.9249                 0.8280                 0.8447
 IR Inten    --     21.3739                26.9082                 7.9665

                     34                     35                     36
                      A                      A                      A
 Frequencies --    821.7581               859.4403               891.2673
 Red. masses --      2.0249                 2.4065                 1.7917
 Frc consts  --      0.8056                 1.0473                 0.8385
 IR Inten    --     38.8217                 2.6284                35.9039

                     37                     38                     39
                      A                      A                      A
 Frequencies --    897.7368               903.5760               922.2415
 Red. masses --      1.9449                 1.7373                 2.1484
 Frc consts  --      0.9235                 0.8357                 1.0766
 IR Inten    --     46.2585                29.5043                 5.4917

                     40                     41                     42
                      A                      A                      A
 Frequencies --    944.6909               951.4600               973.1729
 Red. masses --      2.7658                 2.1420                 1.7582
 Frc consts  --      1.4543                 1.1425                 0.9811
 IR Inten    --      4.2413                 2.9526                 1.4567

                     43                     44                     45
                      A                      A                      A
 Frequencies --    987.6191               997.2453              1000.6312
 Red. masses --      1.3515                 1.3291                 1.8604
 Frc consts  --      0.7767                 0.7788                 1.0975
 IR Inten    --      0.7215                 0.9333                20.9757

                     46                     47                     48
                      A                      A                      A
 Frequencies --   1028.9792              1058.6600              1065.2141
 Red. masses --      1.6814                 1.6826                 1.6079
 Frc consts  --      1.0489                 1.1111                 1.0750
 IR Inten    --      8.4748                31.7589                 7.3867

                     49                     50                     51
                      A                      A                      A
 Frequencies --   1082.5260              1100.4337              1113.4915
 Red. masses --      2.0042                 1.9967                 2.6603
 Frc consts  --      1.3838                 1.4246                 1.9434
 IR Inten    --      4.5827                32.6532                 0.2697

                     52                     53                     54
                      A                      A                      A
 Frequencies --   1121.1190              1142.2116              1162.2643
 Red. masses --      2.1286                 2.5129                 2.1238
 Frc consts  --      1.5763                 1.9316                 1.6904
 IR Inten    --      6.8130                20.7090                37.9076

                     55                     56                     57
                      A                      A                      A
 Frequencies --   1185.9313              1212.3076              1242.0205
 Red. masses --      2.2488                 1.9281                 1.1147
 Frc consts  --      1.8634                 1.6696                 1.0131
 IR Inten    --      1.9887                37.1381                 3.4436

                     58                     59                     60
                      A                      A                      A
 Frequencies --   1246.0616              1250.2765              1310.2463
 Red. masses --      1.2331                 1.1789                 1.2452
 Frc consts  --      1.1281                 1.0858                 1.2595
 IR Inten    --      2.9068                 3.1786                 6.2110

                     61                     62                     63
                      A                      A                      A
 Frequencies --   1339.1745              1342.9074              1364.1348
 Red. masses --      1.2339                 1.2559                 1.3538
 Frc consts  --      1.3037                 1.3345                 1.4843
 IR Inten    --      5.8464                 0.6624                 6.4370

                     64                     65                     66
                      A                      A                      A
 Frequencies --   1378.4376              1401.7850              1405.5759
 Red. masses --      1.3129                 1.2575                 1.3506
 Frc consts  --      1.4698                 1.4559                 1.5721
 IR Inten    --     12.9925                11.6336                 2.0146

                     67                     68                     69
                      A                      A                      A
 Frequencies --   1407.0481              1414.7377              1452.0970
 Red. masses --      1.4733                 1.3606                 1.7206
 Frc consts  --      1.7185                 1.6045                 2.1375
 IR Inten    --      1.3946                 1.6155                 0.9820

                     70                     71                     72
                      A                      A                      A
 Frequencies --   1476.5292              1477.3943              1483.6988
 Red. masses --      1.0651                 1.1343                 1.0718
 Frc consts  --      1.3681                 1.4587                 1.3901
 IR Inten    --      5.2547                 8.5086                 3.9668

                     73                     74                     75
                      A                      A                      A
 Frequencies --   1493.7490              1495.7763              1501.4624
 Red. masses --      1.0745                 1.0708                 1.1478
 Frc consts  --      1.4126                 1.4115                 1.5246
 IR Inten    --      9.9471                 4.5304                 2.8607

                     76                     77                     78
                      A                      A                      A
 Frequencies --   1502.4966              1536.2889              1678.3046
 Red. masses --      1.0651                 1.1020                 1.0632
 Frc consts  --      1.4167                 1.5324                 1.7645
 IR Inten    --      9.6882                 0.5833                13.5438

                     79                     80                     81
                      A                      A                      A
 Frequencies --   1692.7567              1697.4787              1710.7936
 Red. masses --      7.5823                 5.6421                 8.0715
 Frc consts  --     12.8009                 9.5785                13.9188
 IR Inten    --      0.9055                 0.5763                 4.0164

                     82                     83                     84
                      A                      A                      A
 Frequencies --   1721.8898              2945.3605              3017.8077
 Red. masses --      9.9176                 1.0801                 1.0632
 Frc consts  --     17.3247                 5.5204                 5.7047
 IR Inten    --      2.0910                47.4491                23.3887

                     85                     86                     87
                      A                      A                      A
 Frequencies --   3022.3785              3035.4891              3071.7733
 Red. masses --      1.0376                 1.0368                 1.0983
 Frc consts  --      5.5847                 5.6286                 6.1060
 IR Inten    --     32.5809                13.7185                15.5429

                     88                     89                     90
                      A                      A                      A
 Frequencies --   3073.6360              3098.4584              3101.3351
 Red. masses --      1.0983                 1.0859                 1.0894
 Frc consts  --      6.1133                 6.1426                 6.1737
 IR Inten    --     14.9280                15.3190                27.4456

                     91                     92                     93
                      A                      A                      A
 Frequencies --   3104.1293              3112.5509              3114.0383
 Red. masses --      1.0967                 1.0829                 1.0958
 Frc consts  --      6.2264                 6.1812                 6.2606
 IR Inten    --     22.1901                 2.4252                37.8027

                     94                     95                     96
                      A                      A                      A
 Frequencies --   3116.5920              3124.5503              3133.0650
 Red. masses --      1.0833                 1.0988                 1.0925
 Frc consts  --      6.1998                 6.3206                 6.3185
 IR Inten    --      3.3617                15.4412                50.4734

                     97                     98                     99
                      A                      A                      A
 Frequencies --   3141.5509              3398.3727              3443.6106
 Red. masses --      1.0941                 1.0542                 1.0740
 Frc consts  --      6.3621                 7.1731                 7.5040
 IR Inten    --     43.1472                11.1757                 3.7586

                    100                    101                    102
                      A                      A                      A
 Frequencies --   3457.1638              3498.5896              3531.7196
 Red. masses --      1.0736                 1.0751                 1.0853
 Frc consts  --      7.5602                 7.7530                 7.9756
 IR Inten    --      4.9703                 2.2247                 0.6669

 - Thermochemistry -
 -------------------
 Temperature   298.150 Kelvin.  Pressure   1.00000 Atm.
 Atom     1 has atomic number  6 and mass  12.00000

 Molecular mass:   220.16880 amu.
 Principal axes and moments of inertia in atomic units:
                           1         2         3
     Eigenvalues --  1413.156058467.144109016.53316
           X            1.00000  -0.00197   0.00047
           Y            0.00197   1.00000  -0.00038
           Z           -0.00047   0.00038   1.00000
 This molecule is an asymmetric top.
 Rotational symmetry number  1.
 Warning -- assumption of classical behavior for rotation
           may cause significant error
 Rotational temperatures (Kelvin)      0.06129     0.01023     0.00961
 Rotational constants (GHZ):           1.27710     0.21315     0.20016
 Zero-point vibrational energy     823537.9 (Joules/Mol)
                                  196.83028 (Kcal/Mol)
 Warning -- explicit consideration of  25 degrees of freedom as
           vibrations may cause significant error
 Vibrational temperatures:     38.75    64.16    75.08   113.29   132.04
          (Kelvin)            179.99   202.82   221.69   292.05   325.07
                              341.32   374.20   377.77   422.43   429.73
                              461.65   479.36   526.31   548.94   610.21
                              652.72   667.85   748.72   793.44   847.94
                              921.46   948.08   956.89  1026.73  1052.55
                             1112.18  1152.86  1167.73  1182.33  1236.54
                             1282.33  1291.64  1300.04  1326.90  1359.20
                             1368.94  1400.18  1420.96  1434.81  1439.69
                             1480.47  1523.18  1532.61  1557.51  1583.28
                             1602.07  1613.04  1643.39  1672.24  1706.29
                             1744.24  1786.99  1792.80  1798.87  1885.15
                             1926.77  1932.14  1962.69  1983.26  2016.86
                             2022.31  2024.43  2035.49  2089.24  2124.40
                             2125.64  2134.71  2149.17  2152.09  2160.27
                             2161.76  2210.38  2414.71  2435.50  2442.29
                             2461.45  2477.42  4237.72  4341.95  4348.53
                             4367.39  4419.60  4422.28  4457.99  4462.13
                             4466.15  4478.27  4480.41  4484.08  4495.53
                             4507.78  4519.99  4889.50  4954.59  4974.09
                             5033.69  5081.36

 Zero-point correction=                           0.313669 (Hartree/Particle)
 Thermal correction to Energy=                    0.330629
 Thermal correction to Enthalpy=                  0.331573
 Thermal correction to Gibbs Free Energy=         0.268597
 Sum of electronic and zero-point Energies=           -687.888125
 Sum of electronic and thermal Energies=              -687.871165
 Sum of electronic and thermal Enthalpies=            -687.870220
 Sum of electronic and thermal Free Energies=         -687.933197

                     E (Thermal)             CV                S
                      KCal/Mol        Cal/Mol-Kelvin    Cal/Mol-Kelvin
 Total                  207.473             64.939            132.546
 Electronic               0.000              0.000              0.000
 Translational            0.889              2.981             42.071
 Rotational               0.889              2.981             33.045
 Vibrational            205.696             58.977             57.431
 Vibration     1          0.593              1.984              6.044
 Vibration     2          0.595              1.980              5.044
 Vibration     3          0.596              1.977              4.733
 Vibration     4          0.600              1.963              3.922
 Vibration     5          0.602              1.955              3.622
 Vibration     6          0.610              1.928              3.020
 Vibration     7          0.615              1.912              2.791
 Vibration     8          0.620              1.898              2.621
 Vibration     9          0.639              1.836              2.106
 Vibration    10          0.650              1.802              1.911
 Vibration    11          0.656              1.784              1.824
 Vibration    12          0.668              1.746              1.661
 Vibration    13          0.670              1.741              1.645
 Vibration    14          0.688              1.686              1.453
 Vibration    15          0.692              1.676              1.424
 Vibration    16          0.706              1.634              1.306
 Vibration    17          0.715              1.609              1.245
 Vibration    18          0.739              1.543              1.097
 Vibration    19          0.751              1.510              1.033
 Vibration    20          0.786              1.418              0.878
 Vibration    21          0.812              1.353              0.785
 Vibration    22          0.822              1.330              0.754
 Vibration    23          0.875              1.205              0.609
 Vibration    24          0.907              1.136              0.541
 Vibration    25          0.947              1.054              0.468

 Optimization completed.
    -- Stationary point found.
 Normal termination of Gaussian 16 at Fri May 19 03:08:40 2023.
