 Gaussian 16, Revision A.03,
 Gaussian 16:  ES64L-G16RevA.03 25-Dec-2016

 -----------------------------
 # opt freq b3lyp/6-31g(2df,p)
 -----------------------------

 -------------------
 Title Card Required
 -------------------
 Symbolic Z-matrix:
 Charge =  0 Multiplicity = 1

 SCF Done:  E(RB3LYP) =  -992.641159667     A.U. after   23 cycles
 SCF Done:  E(RB3LYP) =  -992.717682190     A.U. after   15 cycles
 SCF Done:  E(RB3LYP) =  -992.789094544     A.U. after   15 cycles
 SCF Done:  E(RB3LYP) =  -992.833069147     A.U. after   15 cycles
 SCF Done:  E(RB3LYP) =  -992.859422838     A.U. after   15 cycles
 SCF Done:  E(RB3LYP) =  -992.858699527     A.U. after   14 cycles
 SCF Done:  E(RB3LYP) =  -992.865125604     A.U. after   14 cycles
 SCF Done:  E(RB3LYP) =  -992.867211130     A.U. after   14 cycles
 SCF Done:  E(RB3LYP) =  -992.868756896     A.U. after   15 cycles
 SCF Done:  E(RB3LYP) =  -992.870125052     A.U. after   14 cycles
 SCF Done:  E(RB3LYP) =  -992.873901501     A.U. after   12 cycles
 SCF Done:  E(RB3LYP) =  -992.874002127     A.U. after   12 cycles
 SCF Done:  E(RB3LYP) =  -992.874021214     A.U. after   12 cycles
 SCF Done:  E(RB3LYP) =  -992.874046289     A.U. after   10 cycles
 SCF Done:  E(RB3LYP) =  -992.874058818     A.U. after   11 cycles
 SCF Done:  E(RB3LYP) =  -992.874061754     A.U. after    9 cycles
 SCF Done:  E(RB3LYP) =  -992.874062970     A.U. after   11 cycles
 SCF Done:  E(RB3LYP) =  -992.874064048     A.U. after    9 cycles
 SCF Done:  E(RB3LYP) =  -992.874064142     A.U. after    7 cycles
 Optimization completed.
    -- Stationary point found.
 Normal termination of Gaussian 16 at Wed May 17 02:28:42 2023.

 ----------------------------------------------------------------------
 #N Geom=AllCheck Guess=TCheck SCRF=Check GenChk RB3LYP/6-31G(2df,p) Fr
 eq
 ----------------------------------------------------------------------

 Structure from the checkpoint file:  "CC1dCC2dCCdCCdCCdCdCdC2CdNS1.chk"
 -------------------
 Title Card Required
 -------------------
 Charge =  0 Multiplicity = 1

                         Standard orientation:
 ---------------------------------------------------------------------
 Center     Atomic      Atomic             Coordinates (Angstroms)
 Number     Number       Type             X           Y           Z
 ---------------------------------------------------------------------
      1          6           0       -4.291525    1.326043   -0.504244
      2          6           0       -2.975673    0.680990   -0.165328
      3          6           0       -1.794347    1.161262   -0.589618
      4          6           0       -0.452171    0.698133   -0.266245
      5          6           0        0.580220    1.713882   -0.216339
      6          6           0        1.621302    1.564960    0.650063
      7          6           0        3.009077    1.713218    0.321399
      8          6           0        3.729835    0.648719    0.771823
      9          6           0        4.549671   -0.227437   -0.066347
     10          6           0        3.866510   -1.321667   -0.508379
     11          6           0        2.461932   -1.351078   -0.320929
     12          6           0        1.277500   -1.056779   -0.224232
     13          6           0       -0.078647   -0.654521   -0.192831
     14          6           0       -1.010000   -1.792915   -0.352904
     15          7           0       -2.225015   -1.983739   -0.014255
     16         16           0       -3.102949   -0.765268    0.861033
     17          1           0       -4.142297    2.270330   -1.035830
     18          1           0       -4.873422    1.531691    0.401927
     19          1           0       -4.902253    0.660902   -1.124582
     20          1           0       -1.819101    2.073536   -1.185815
     21          1           0        0.591894    2.467014   -1.002814
     22          1           0        1.433920    0.905137    1.492975
     23          1           0        3.301618    2.271253   -0.564116
     24          1           0        3.292617    0.120120    1.617871
     25          1           0        5.570831   -0.022395   -0.371575
     26          1           0        4.353796   -2.107868   -1.078503
     27          1           0       -0.547416   -2.656117   -0.841626
 ---------------------------------------------------------------------

 SCF Done:  E(RB3LYP) =  -992.874064142     A.U. after    1 cycles

 The electronic state is 1-A.
 Alpha  occ. eigenvalues --  -88.88988 -14.34424 -10.23626 -10.22587 -10.22534
 Alpha  occ. eigenvalues --  -10.22386 -10.21658 -10.21485 -10.21272 -10.21100
 Alpha  occ. eigenvalues --  -10.20983 -10.19784 -10.19637 -10.19413 -10.19148
 Alpha  occ. eigenvalues --  -10.19115  -7.94924  -5.91523  -5.91053  -5.90424
 Alpha  occ. eigenvalues --   -0.92541  -0.86362  -0.84018  -0.81657  -0.80679
 Alpha  occ. eigenvalues --   -0.74958  -0.73970  -0.70873  -0.69414  -0.65245
 Alpha  occ. eigenvalues --   -0.62643  -0.58050  -0.57881  -0.54544  -0.54112
 Alpha  occ. eigenvalues --   -0.51902  -0.48665  -0.47925  -0.44890  -0.44639
 Alpha  occ. eigenvalues --   -0.44247  -0.43239  -0.42884  -0.41934  -0.40872
 Alpha  occ. eigenvalues --   -0.38945  -0.38582  -0.38136  -0.37503  -0.34255
 Alpha  occ. eigenvalues --   -0.33377  -0.31691  -0.30929  -0.28154  -0.27877
 Alpha  occ. eigenvalues --   -0.25876  -0.22974  -0.21941  -0.19566
 Alpha virt. eigenvalues --   -0.08158  -0.04895  -0.01486  -0.00256   0.00833
 Alpha virt. eigenvalues --    0.02676   0.04947   0.08101   0.08463   0.10394
 Alpha virt. eigenvalues --    0.10846   0.11824   0.13344   0.13918   0.14884

 Mulliken charges:
               1
     1  C   -0.459963
     2  C    0.173315
     3  C   -0.200995
     4  C    0.215402
     5  C   -0.213329
     6  C   -0.077264
     7  C   -0.080746
     8  C   -0.115654
     9  C   -0.118652
    10  C   -0.200020
    11  C   -0.029325
    12  C    0.164152
    13  C   -0.062971
    14  C    0.005945
    15  N   -0.239028
    16  S   -0.092582
    17  H    0.123166
    18  H    0.141291
    19  H    0.150051
    20  H    0.096227
    21  H    0.104936
    22  H    0.117673
    23  H    0.108730
    24  H    0.124740
    25  H    0.118217
    26  H    0.118730
    27  H    0.127957
 Sum of Mulliken charges =  -0.00000

 Dipole moment (field-independent basis, Debye):
    X=              2.7864    Y=              2.6752    Z=             -1.5235  Tot=              4.1523
 Quadrupole moment (field-independent basis, Debye-Ang):
   XX=            -90.9174   YY=            -98.8200   ZZ=            -98.8052
   XY=             -8.3968   XZ=              0.4129   YZ=             -1.3647

  Exact polarizability: 326.593 -10.313 166.378  -2.036  -1.134 102.847
 Approx polarizability: 587.055 -25.507 330.716   7.900  -0.416 185.810

                      1                      2                      3
                      A                      A                      A
 Frequencies --     46.4590                62.3627               100.3589
 Red. masses --      4.3595                 6.5160                 4.9270
 Frc consts  --      0.0055                 0.0149                 0.0292
 IR Inten    --      1.2668                 0.7721                 0.7816

                      4                      5                      6
                      A                      A                      A
 Frequencies --    128.3458               147.2454               183.9122
 Red. masses --      5.0549                 3.3353                 1.1078
 Frc consts  --      0.0491                 0.0426                 0.0221
 IR Inten    --      0.6835                 3.9308                 0.3029

                      7                      8                      9
                      A                      A                      A
 Frequencies --    227.8903               234.7851               259.3992
 Red. masses --      4.0760                 3.8744                 6.2512
 Frc consts  --      0.1247                 0.1258                 0.2478
 IR Inten    --      1.6773                 1.8027                 1.0536

                     10                     11                     12
                      A                      A                      A
 Frequencies --    276.1201               308.5864               315.0523
 Red. masses --      3.6717                 3.1281                 3.7844
 Frc consts  --      0.1649                 0.1755                 0.2213
 IR Inten    --      1.4632                 4.9207                 5.8506

                     13                     14                     15
                      A                      A                      A
 Frequencies --    322.7442               383.7303               401.5442
 Red. masses --      3.9989                 3.3745                 4.5348
 Frc consts  --      0.2454                 0.2928                 0.4308
 IR Inten    --     10.8323                 7.7293                 2.0009

                     16                     17                     18
                      A                      A                      A
 Frequencies --    435.4524               454.8111               471.0190
 Red. masses --      5.2348                 4.4330                 3.9545
 Frc consts  --      0.5848                 0.5403                 0.5169
 IR Inten    --      9.2588                 2.9462                 8.1763

                     19                     20                     21
                      A                      A                      A
 Frequencies --    495.9519               541.9759               546.3978
 Red. masses --      5.8798                 3.8156                 8.3472
 Frc consts  --      0.8521                 0.6603                 1.4683
 IR Inten    --      1.8110                 4.0698                 6.4932

                     22                     23                     24
                      A                      A                      A
 Frequencies --    562.7376               579.3560               622.6307
 Red. masses --      4.4144                 4.9517                 7.2216
 Frc consts  --      0.8236                 0.9792                 1.6495
 IR Inten    --     16.9831                 6.5878                 5.7088

                     25                     26                     27
                      A                      A                      A
 Frequencies --    660.2527               673.5775               694.4810
 Red. masses --      4.3190                 5.6665                 3.3065
 Frc consts  --      1.1093                 1.5148                 0.9396
 IR Inten    --      2.0087                 9.9097                 2.1386

                     28                     29                     30
                      A                      A                      A
 Frequencies --    721.5851               737.1331               810.9375
 Red. masses --      2.5796                 1.9860                 2.2226
 Frc consts  --      0.7914                 0.6358                 0.8612
 IR Inten    --     21.9202                34.8791                15.8230

                     31                     32                     33
                      A                      A                      A
 Frequencies --    814.7601               859.5674               881.3445
 Red. masses --      2.7018                 1.9151                 1.7751
 Frc consts  --      1.0567                 0.8337                 0.8124
 IR Inten    --     19.5992                24.1280                43.0491

                     34                     35                     36
                      A                      A                      A
 Frequencies --    926.4695               933.3126               958.5628
 Red. masses --      1.5092                 1.8227                 1.3960
 Frc consts  --      0.7632                 0.9354                 0.7558
 IR Inten    --      1.9086                 4.3947                 6.6525

                     37                     38                     39
                      A                      A                      A
 Frequencies --    975.4259              1009.4118              1048.6901
 Red. masses --      1.9250                 2.0661                 1.2251
 Frc consts  --      1.0791                 1.2403                 0.7938
 IR Inten    --      3.9792                15.8379                90.4940

                     40                     41                     42
                      A                      A                      A
 Frequencies --   1057.6764              1086.9894              1097.1114
 Red. masses --      1.4669                 2.6794                 2.7290
 Frc consts  --      0.9668                 1.8652                 1.9354
 IR Inten    --      2.5796                16.1956                20.4591

                     43                     44                     45
                      A                      A                      A
 Frequencies --   1138.4663              1151.4467              1156.7045
 Red. masses --      2.5495                 1.5672                 2.4641
 Frc consts  --      1.9469                 1.2242                 1.9425
 IR Inten    --      8.8581                 0.8498                 1.5369

                     46                     47                     48
                      A                      A                      A
 Frequencies --   1223.0788              1240.8944              1270.6481
 Red. masses --      1.7637                 1.6187                 2.4730
 Frc consts  --      1.5545                 1.4686                 2.3525
 IR Inten    --      4.4447                 3.1955                 4.1638

                     49                     50                     51
                      A                      A                      A
 Frequencies --   1318.9337              1332.3118              1361.1092
 Red. masses --      1.5050                 1.4887                 1.8943
 Frc consts  --      1.5425                 1.5569                 2.0677
 IR Inten    --      4.6404                18.3371                 4.5126

                     52                     53                     54
                      A                      A                      A
 Frequencies --   1375.7945              1384.5229              1408.4636
 Red. masses --      1.5300                 1.5803                 1.3201
 Frc consts  --      1.7063                 1.7849                 1.5429
 IR Inten    --      1.8882                 2.6335                 1.7665

                     55                     56                     57
                      A                      A                      A
 Frequencies --   1410.4195              1460.0515              1469.4013
 Red. masses --      1.2645                 3.9018                 1.0510
 Frc consts  --      1.4821                 4.9006                 1.3370
 IR Inten    --      2.5621                29.4522                 7.7880

                     58                     59                     60
                      A                      A                      A
 Frequencies --   1484.2504              1540.2132              1572.9682
 Red. masses --      1.0641                 5.8321                 4.0149
 Frc consts  --      1.3812                 8.1515                 5.8529
 IR Inten    --     10.9792                 1.9336                 2.9153

                     61                     62                     63
                      A                      A                      A
 Frequencies --   1599.2148              1658.3017              1666.1934
 Red. masses --      4.8402                 8.0507                 8.3906
 Frc consts  --      7.2933                13.0440                13.7244
 IR Inten    --     57.4278                80.2577                28.7575

                     64                     65                     66
                      A                      A                      A
 Frequencies --   2201.9347              3026.0951              3080.3604
 Red. masses --     11.8111                 1.0353                 1.0852
 Frc consts  --     33.7403                 5.5856                 6.0667
 IR Inten    --      1.7840                26.3640                12.4625

                     67                     68                     69
                      A                      A                      A
 Frequencies --   3082.9691              3110.4598              3118.2513
 Red. masses --      1.0989                 1.1015                 1.0849
 Frc consts  --      6.1541                 6.2788                 6.2151
 IR Inten    --      9.1472                 9.6316                 8.0428

                     70                     71                     72
                      A                      A                      A
 Frequencies --   3121.9080              3136.0473              3153.3155
 Red. masses --      1.0864                 1.0874                 1.0860
 Frc consts  --      6.2386                 6.3011                 6.3626
 IR Inten    --     15.9704                14.6485                 5.2087

                     73                     74                     75
                      A                      A                      A
 Frequencies --   3158.8422              3169.5623              3182.5443
 Red. masses --      1.0845                 1.0900                 1.0948
 Frc consts  --      6.3760                 6.4519                 6.5333
 IR Inten    --     10.2084                13.4810                24.0796

 - Thermochemistry -
 -------------------
 Temperature   298.150 Kelvin.  Pressure   1.00000 Atm.
 Atom     1 has atomic number  6 and mass  12.00000

 Molecular mass:   225.06122 amu.
 Principal axes and moments of inertia in atomic units:
                           1         2         3
     Eigenvalues --  1530.959196422.101777488.01716
           X            0.99987  -0.01512   0.00523
           Y            0.01517   0.99984  -0.00956
           Z           -0.00509   0.00964   0.99994
 This molecule is an asymmetric top.
 Rotational symmetry number  1.
 Warning -- assumption of classical behavior for rotation
           may cause significant error
 Rotational temperatures (Kelvin)      0.05657     0.01349     0.01157
 Rotational constants (GHZ):           1.17883     0.28102     0.24102
 Zero-point vibrational energy     537253.9 (Joules/Mol)
                                  128.40676 (Kcal/Mol)
 Warning -- explicit consideration of  23 degrees of freedom as
           vibrations may cause significant error
 Vibrational temperatures:     66.84    89.73   144.39   184.66   211.85
          (Kelvin)            264.61   327.88   337.80   373.22   397.28
                              443.99   453.29   464.36   552.10   577.73
                              626.52   654.37   677.69   713.56   779.78
                              786.14   809.65   833.56   895.83   949.96
                              969.13   999.20  1038.20  1060.57  1166.76
                             1172.26  1236.73  1268.06  1332.98  1342.83
                             1379.16  1403.42  1452.32  1508.83  1521.76
                             1563.94  1578.50  1638.00  1656.67  1664.24
                             1759.74  1785.37  1828.18  1897.65  1916.90
                             1958.33  1979.46  1992.02  2026.47  2029.28
                             2100.69  2114.14  2135.51  2216.02  2263.15
                             2300.91  2385.93  2397.28  3168.09  4353.88
                             4431.95  4435.70  4475.26  4486.47  4491.73
                             4512.07  4536.92  4544.87  4560.29  4578.97

 Zero-point correction=                           0.204629 (Hartree/Particle)
 Thermal correction to Energy=                    0.218814
 Thermal correction to Enthalpy=                  0.219758
 Thermal correction to Gibbs Free Energy=         0.163867
 Sum of electronic and zero-point Energies=           -992.669435
 Sum of electronic and thermal Energies=              -992.655250
 Sum of electronic and thermal Enthalpies=            -992.654306
 Sum of electronic and thermal Free Energies=         -992.710197

                     E (Thermal)             CV                S
                      KCal/Mol        Cal/Mol-Kelvin    Cal/Mol-Kelvin
 Total                  137.308             55.752            117.632
 Electronic               0.000              0.000              0.000
 Translational            0.889              2.981             42.136
 Rotational               0.889              2.981             32.665
 Vibrational            135.530             49.790             42.831
 Vibration     1          0.595              1.979              4.963
 Vibration     2          0.597              1.972              4.381
 Vibration     3          0.604              1.949              3.447
 Vibration     4          0.611              1.925              2.971
 Vibration     5          0.617              1.906              2.708
 Vibration     6          0.631              1.862              2.288
 Vibration     7          0.651              1.798              1.896
 Vibration     8          0.655              1.788              1.842
 Vibration     9          0.668              1.747              1.666
 Vibration    10          0.678              1.718              1.558
 Vibration    11          0.698              1.657              1.370
 Vibration    12          0.702              1.645              1.336
 Vibration    13          0.708              1.630              1.296
 Vibration    14          0.753              1.505              1.024
 Vibration    15          0.767              1.467              0.957
 Vibration    16          0.796              1.393              0.841
 Vibration    17          0.813              1.350              0.781
 Vibration    18          0.828              1.314              0.735
 Vibration    19          0.852              1.259              0.668
 Vibration    20          0.897              1.157              0.561
 Vibration    21          0.902              1.148              0.552
 Vibration    22          0.918              1.112              0.518
 Vibration    23          0.936              1.076              0.487

 Optimization completed.
    -- Stationary point found.
 Normal termination of Gaussian 16 at Wed May 17 04:44:19 2023.
