 Gaussian 16, Revision A.03,
 Gaussian 16:  ES64L-G16RevA.03 25-Dec-2016

 -----------------------------
 # opt freq b3lyp/6-31g(2df,p)
 -----------------------------

 -------------------
 Title Card Required
 -------------------
 Symbolic Z-matrix:
 Charge =  0 Multiplicity = 1

 SCF Done:  E(RB3LYP) =  -1314.35552567     A.U. after   31 cycles
 SCF Done:  E(RB3LYP) =  -1314.44615093     A.U. after   24 cycles
 SCF Done:  E(RB3LYP) =  -1314.57161812     A.U. after   21 cycles
 SCF Done:  E(RB3LYP) =  -1314.61123500     A.U. after   20 cycles
 SCF Done:  E(RB3LYP) =  -1314.67135625     A.U. after   19 cycles
 SCF Done:  E(RB3LYP) =  -1314.71191428     A.U. after   19 cycles
 SCF Done:  E(RB3LYP) =  -1314.75251782     A.U. after   17 cycles
 SCF Done:  E(RB3LYP) =  -1314.79673618     A.U. after   16 cycles
 SCF Done:  E(RB3LYP) =  -1314.81903867     A.U. after   14 cycles
 SCF Done:  E(RB3LYP) =  -1314.83764073     A.U. after   15 cycles
 SCF Done:  E(RB3LYP) =  -1314.87209648     A.U. after   13 cycles
 SCF Done:  E(RB3LYP) =  -1314.87222544     A.U. after   11 cycles
 SCF Done:  E(RB3LYP) =  -1314.87226130     A.U. after   11 cycles
 SCF Done:  E(RB3LYP) =  -1314.87227429     A.U. after   11 cycles
 SCF Done:  E(RB3LYP) =  -1314.87227721     A.U. after    8 cycles
 SCF Done:  E(RB3LYP) =  -1314.87227951     A.U. after    9 cycles
 SCF Done:  E(RB3LYP) =  -1314.87227986     A.U. after    8 cycles
 SCF Done:  E(RB3LYP) =  -1314.87227992     A.U. after    7 cycles
 SCF Done:  E(RB3LYP) =  -1314.87227997     A.U. after    8 cycles
 Optimization completed.
    -- Stationary point found.
 Normal termination of Gaussian 16 at Wed May 17 01:29:50 2023.

 ----------------------------------------------------------------------
 #N Geom=AllCheck Guess=TCheck SCRF=Check GenChk RB3LYP/6-31G(2df,p) Fr
 eq
 ----------------------------------------------------------------------

 Structure from the checkpoint file:  "CC1dCCdCC2dCSC2dCCdCCdNS1.chk"
 -------------------
 Title Card Required
 -------------------
 Charge =  0 Multiplicity = 1

                         Standard orientation:
 ---------------------------------------------------------------------
 Center     Atomic      Atomic             Coordinates (Angstroms)
 Number     Number       Type             X           Y           Z
 ---------------------------------------------------------------------
      1          6           0       -3.638328   -1.491607    0.862323
      2          6           0       -2.379154   -1.176926    0.098236
      3          6           0       -1.250778   -1.919138    0.236470
      4          6           0        0.066968   -1.538875   -0.211485
      5          6           0        1.264626   -2.044034    0.179138
      6          6           0        2.425540   -1.148714    0.063882
      7          6           0        3.603476   -1.068597   -0.601044
      8         16           0        3.846367    0.713446   -0.381093
      9          6           0        2.316706    0.279836    0.450641
     10          6           0        1.254525    0.810741    1.079644
     11          6           0        0.447239    1.989025    0.866042
     12          6           0       -0.884085    1.730678    0.908208
     13          6           0       -1.908859    2.365378    0.096512
     14          7           0       -2.670882    1.738846   -0.726951
     15         16           0       -2.592330    0.086295   -1.193581
     16          1           0       -3.483290   -2.319225    1.561816
     17          1           0       -4.461347   -1.747170    0.186449
     18          1           0       -3.968821   -0.617212    1.435961
     19          1           0       -1.318184   -2.795846    0.882249
     20          1           0        0.082514   -0.618991   -0.787831
     21          1           0        1.342926   -2.993442    0.704302
     22          1           0        4.192170   -1.739151   -1.208863
     23          1           0        0.664072    0.021931    1.536471
     24          1           0        0.852124    2.889333    0.412977
     25          1           0       -1.178899    0.770397    1.317902
     26          1           0       -1.998921    3.454988    0.070605
 ---------------------------------------------------------------------

 SCF Done:  E(RB3LYP) =  -1314.87227997     A.U. after    1 cycles

 The electronic state is 1-A.
 Alpha  occ. eigenvalues --  -88.90118 -88.89482 -14.35500 -10.24205 -10.23162
 Alpha  occ. eigenvalues --  -10.22894 -10.22458 -10.22309 -10.21018 -10.20868
 Alpha  occ. eigenvalues --  -10.20836 -10.20812 -10.20659 -10.20015 -10.19340
 Alpha  occ. eigenvalues --   -7.95879  -7.95612  -5.92494  -5.92059  -5.91996
 Alpha  occ. eigenvalues --   -5.91780  -5.91403  -5.91193  -0.92730  -0.89019
 Alpha  occ. eigenvalues --   -0.83573  -0.82712  -0.78885  -0.75032  -0.71694
 Alpha  occ. eigenvalues --   -0.71292  -0.66413  -0.64608  -0.59634  -0.58450
 Alpha  occ. eigenvalues --   -0.57258  -0.54770  -0.51125  -0.49458  -0.47899
 Alpha  occ. eigenvalues --   -0.46805  -0.44988  -0.44639  -0.43263  -0.42226
 Alpha  occ. eigenvalues --   -0.41384  -0.40140  -0.39179  -0.38459  -0.37449
 Alpha  occ. eigenvalues --   -0.36605  -0.36450  -0.33731  -0.32517  -0.31524
 Alpha  occ. eigenvalues --   -0.30494  -0.27421  -0.24541  -0.23258  -0.21658
 Alpha  occ. eigenvalues --   -0.20561
 Alpha virt. eigenvalues --   -0.07695  -0.06240  -0.01756  -0.00311   0.00933
 Alpha virt. eigenvalues --    0.02142   0.04279   0.07174   0.08495   0.09591
 Alpha virt. eigenvalues --    0.09820   0.11418   0.12275   0.13121   0.14138

 Mulliken charges:
               1
     1  C   -0.453305
     2  C    0.146118
     3  C   -0.129799
     4  C   -0.050347
     5  C   -0.272335
     6  C    0.243351
     7  C   -0.228045
     8  S   -0.126796
     9  C    0.178850
    10  C   -0.207375
    11  C   -0.105097
    12  C   -0.097856
    13  C   -0.009948
    14  N   -0.183592
    15  S   -0.069208
    16  H    0.120013
    17  H    0.147986
    18  H    0.139891
    19  H    0.097614
    20  H    0.130647
    21  H    0.107288
    22  H    0.138919
    23  H    0.120122
    24  H    0.120094
    25  H    0.118166
    26  H    0.124643
 Sum of Mulliken charges =  -0.00000

 Dipole moment (field-independent basis, Debye):
    X=              0.2829    Y=             -1.4037    Z=              2.1630  Tot=              2.5940
 Quadrupole moment (field-independent basis, Debye-Ang):
   XX=           -107.7348   YY=            -92.2288   ZZ=           -104.3945
   XY=              0.0846   XZ=             -8.9654   YZ=              0.6719

  Exact polarizability: 294.004 -13.079 181.933 -11.549  -0.345 111.085
 Approx polarizability: 558.075 -63.438 330.748 -23.280  10.155 210.882

                      1                      2                      3
                      A                      A                      A
 Frequencies --     50.5397                62.7374                72.9285
 Red. masses --      7.2684                 5.8619                 4.6043
 Frc consts  --      0.0109                 0.0136                 0.0144
 IR Inten    --      1.4757                 0.4694                 0.0815

                      4                      5                      6
                      A                      A                      A
 Frequencies --    138.9901               149.8193               174.9767
 Red. masses --      4.4605                 5.3151                 1.2828
 Frc consts  --      0.0508                 0.0703                 0.0231
 IR Inten    --      0.1126                 0.4671                 0.2857

                      7                      8                      9
                      A                      A                      A
 Frequencies --    182.0918               208.7191               227.5565
 Red. masses --      5.1267                 3.0689                 3.1237
 Frc consts  --      0.1002                 0.0788                 0.0953
 IR Inten    --      2.6640                 1.2846                 6.3166

                     10                     11                     12
                      A                      A                      A
 Frequencies --    245.5260               265.6259               302.3959
 Red. masses --      2.7314                 3.1696                 3.8712
 Frc consts  --      0.0970                 0.1318                 0.2086
 IR Inten    --      0.3968                 1.4266                 0.5205

                     13                     14                     15
                      A                      A                      A
 Frequencies --    314.2184               347.0641               398.8011
 Red. masses --      3.9596                 4.0199                 4.9479
 Frc consts  --      0.2303                 0.2853                 0.4636
 IR Inten    --      2.5899                 1.3302                 1.7563

                     16                     17                     18
                      A                      A                      A
 Frequencies --    417.0715               427.1672               477.7029
 Red. masses --      4.2399                 4.6698                 3.9545
 Frc consts  --      0.4345                 0.5020                 0.5317
 IR Inten    --      1.6219                12.9088                 9.7858

                     19                     20                     21
                      A                      A                      A
 Frequencies --    494.4409               509.6985               568.8216
 Red. masses --      3.4995                 4.5466                 7.8216
 Frc consts  --      0.5041                 0.6959                 1.4911
 IR Inten    --      8.9053                22.4224                27.4483

                     22                     23                     24
                      A                      A                      A
 Frequencies --    579.6130               594.5065               625.7901
 Red. masses --      5.5332                 5.4401                 5.5315
 Frc consts  --      1.0952                 1.1329                 1.2763
 IR Inten    --      1.5853                 0.6207                 1.8049

                     25                     26                     27
                      A                      A                      A
 Frequencies --    655.3536               673.0695               691.3202
 Red. masses --      4.2097                 4.5027                 4.8040
 Frc consts  --      1.0653                 1.2018                 1.3527
 IR Inten    --     12.3640                 8.6027                24.2747

                     28                     29                     30
                      A                      A                      A
 Frequencies --    749.0697               781.0441               836.2351
 Red. masses --      2.2753                 1.9576                 1.7794
 Frc consts  --      0.7522                 0.7036                 0.7331
 IR Inten    --     23.0385                14.1065                 6.5328

                     31                     32                     33
                      A                      A                      A
 Frequencies --    857.6325               902.0388               921.0156
 Red. masses --      1.5874                 1.7301                 3.1721
 Frc consts  --      0.6879                 0.8294                 1.5854
 IR Inten    --     31.9058                13.1636                26.8729

                     34                     35                     36
                      A                      A                      A
 Frequencies --    930.4620               939.3724              1009.7389
 Red. masses --      1.5881                 1.3863                 1.7473
 Frc consts  --      0.8101                 0.7208                 1.0496
 IR Inten    --     17.4545                10.8254                14.4891

                     37                     38                     39
                      A                      A                      A
 Frequencies --   1028.2499              1035.7065              1062.0585
 Red. masses --      1.1226                 1.1580                 1.4406
 Frc consts  --      0.6993                 0.7319                 0.9574
 IR Inten    --     91.2576                 0.9638                 2.5709

                     40                     41                     42
                      A                      A                      A
 Frequencies --   1080.5332              1124.0986              1142.3934
 Red. masses --      2.9500                 2.5945                 2.0362
 Frc consts  --      2.0293                 1.9315                 1.5657
 IR Inten    --     11.5805                23.9209                 7.5038

                     43                     44                     45
                      A                      A                      A
 Frequencies --   1157.3107              1177.6372              1216.7042
 Red. masses --      2.8527                 3.3211                 3.2729
 Frc consts  --      2.2511                 2.7136                 2.8547
 IR Inten    --      7.5643                 1.7538                 8.5627

                     46                     47                     48
                      A                      A                      A
 Frequencies --   1254.2687              1257.2458              1319.5574
 Red. masses --      1.4820                 1.4382                 1.3442
 Frc consts  --      1.3736                 1.3394                 1.3790
 IR Inten    --      0.1823                 5.9739                11.1400

                     49                     50                     51
                      A                      A                      A
 Frequencies --   1335.8340              1339.0901              1347.8255
 Red. masses --      1.3703                 1.2854                 1.2286
 Frc consts  --      1.4407                 1.3580                 1.3150
 IR Inten    --     13.0879                 1.7671                 2.3087

                     52                     53                     54
                      A                      A                      A
 Frequencies --   1410.0265              1429.4249              1468.3768
 Red. masses --      1.2284                 1.1872                 1.0457
 Frc consts  --      1.4390                 1.4292                 1.3284
 IR Inten    --      1.0973                14.7559                 7.7258

                     55                     56                     57
                      A                      A                      A
 Frequencies --   1482.7121              1570.2826              1590.8555
 Red. masses --      1.0767                 6.1802                 8.3036
 Frc consts  --      1.3946                 8.9787                12.3817
 IR Inten    --      6.8354                 2.0447                 9.6721

                     58                     59                     60
                      A                      A                      A
 Frequencies --   1608.2010              1618.6906              1636.9151
 Red. masses --      5.7452                 6.1170                 4.7432
 Frc consts  --      8.7546                 9.4431                 7.4882
 IR Inten    --     13.4013                15.2633                 1.9854

                     61                     62                     63
                      A                      A                      A
 Frequencies --   1680.9374              3022.6714              3080.6539
 Red. masses --      7.8198                 1.0352                 1.0984
 Frc consts  --     13.0182                 5.5725                 6.1418
 IR Inten    --      1.4273                25.9504                10.7330

                     64                     65                     66
                      A                      A                      A
 Frequencies --   3085.0540              3103.9045              3117.8082
 Red. masses --      1.0861                 1.1021                 1.0870
 Frc consts  --      6.0903                 6.2559                 6.2254
 IR Inten    --     32.4344                 9.9414                25.7973

                     67                     68                     69
                      A                      A                      A
 Frequencies --   3147.3025              3152.2323              3174.9066
 Red. masses --      1.0891                 1.0823                 1.0900
 Frc consts  --      6.3564                 6.3361                 6.4734
 IR Inten    --     14.2984                 2.9176                 3.9877

                     70                     71                     72
                      A                      A                      A
 Frequencies --   3175.8726              3182.4776              3251.9460
 Red. masses --      1.0861                 1.0858                 1.0984
 Frc consts  --      6.4545                 6.4794                 6.8440
 IR Inten    --      8.2182                 8.8521                 1.9110

 - Thermochemistry -
 -------------------
 Temperature   298.150 Kelvin.  Pressure   1.00000 Atm.
 Atom     1 has atomic number  6 and mass  12.00000

 Molecular mass:   233.03329 amu.
 Principal axes and moments of inertia in atomic units:
                           1         2         3
     Eigenvalues --  2085.026685762.203876991.17460
           X            0.99990   0.00519  -0.01294
           Y           -0.00536   0.99990  -0.01314
           Z            0.01287   0.01321   0.99983
 This molecule is an asymmetric top.
 Rotational symmetry number  1.
 Warning -- assumption of classical behavior for rotation
           may cause significant error
 Rotational temperatures (Kelvin)      0.04154     0.01503     0.01239
 Rotational constants (GHZ):           0.86557     0.31320     0.25815
 Zero-point vibrational energy     512318.2 (Joules/Mol)
                                  122.44700 (Kcal/Mol)
 Warning -- explicit consideration of  23 degrees of freedom as
           vibrations may cause significant error
 Vibrational temperatures:     72.72    90.27   104.93   199.98   215.56
          (Kelvin)            251.75   261.99   300.30   327.40   353.26
                              382.18   435.08   452.09   499.35   573.79
                              600.07   614.60   687.31   711.39   733.34
                              818.41   833.93   855.36   900.37   942.91
                              968.40   994.66  1077.74  1123.75  1203.16
                             1233.94  1297.83  1325.14  1338.73  1351.55
                             1452.79  1479.42  1490.15  1528.07  1554.65
                             1617.33  1643.65  1665.11  1694.36  1750.57
                             1804.61  1808.90  1898.55  1921.97  1926.65
                             1939.22  2028.71  2056.62  2112.67  2133.29
                             2259.29  2288.89  2313.84  2328.93  2355.16
                             2418.49  4348.95  4432.37  4438.70  4465.83
                             4485.83  4528.27  4535.36  4567.98  4569.37
                             4578.88  4678.83

 Zero-point correction=                           0.195132 (Hartree/Particle)
 Thermal correction to Energy=                    0.209575
 Thermal correction to Enthalpy=                  0.210519
 Thermal correction to Gibbs Free Energy=         0.153699
 Sum of electronic and zero-point Energies=          -1314.677148
 Sum of electronic and thermal Energies=             -1314.662705
 Sum of electronic and thermal Enthalpies=           -1314.661761
 Sum of electronic and thermal Free Energies=        -1314.718581

                     E (Thermal)             CV                S
                      KCal/Mol        Cal/Mol-Kelvin    Cal/Mol-Kelvin
 Total                  131.510             55.209            119.586
 Electronic               0.000              0.000              0.000
 Translational            0.889              2.981             42.240
 Rotational               0.889              2.981             32.796
 Vibrational            129.733             49.248             44.551
 Vibration     1          0.595              1.977              4.796
 Vibration     2          0.597              1.972              4.369
 Vibration     3          0.599              1.967              4.073
 Vibration     4          0.615              1.914              2.818
 Vibration     5          0.618              1.903              2.675
 Vibration     6          0.627              1.873              2.381
 Vibration     7          0.630              1.864              2.307
 Vibration     8          0.642              1.827              2.055
 Vibration     9          0.651              1.799              1.898
 Vibration    10          0.660              1.770              1.762
 Vibration    11          0.671              1.736              1.625
 Vibration    12          0.694              1.669              1.404
 Vibration    13          0.702              1.647              1.340
 Vibration    14          0.725              1.581              1.179
 Vibration    15          0.765              1.473              0.967
 Vibration    16          0.780              1.433              0.902
 Vibration    17          0.789              1.411              0.868
 Vibration    18          0.834              1.300              0.716
 Vibration    19          0.850              1.262              0.672
 Vibration    20          0.865              1.229              0.634
 Vibration    21          0.925              1.099              0.507
 Vibration    22          0.936              1.075              0.486
 Vibration    23          0.952              1.043              0.459

 Optimization completed.
    -- Stationary point found.
 Normal termination of Gaussian 16 at Wed May 17 03:22:05 2023.
