 Gaussian 16, Revision A.03,
 Gaussian 16:  ES64L-G16RevA.03 25-Dec-2016

 -----------------------------
 # opt freq b3lyp/6-31g(2df,p)
 -----------------------------

 -------------------
 Title Card Required
 -------------------
 Symbolic Z-matrix:
 Charge =  0 Multiplicity = 1

 SCF Done:  E(RB3LYP) =  -919.039885625     A.U. after   25 cycles
 SCF Done:  E(RB3LYP) =  -919.133135017     A.U. after   16 cycles
 SCF Done:  E(RB3LYP) =  -919.200231573     A.U. after   18 cycles
 SCF Done:  E(RB3LYP) =  -919.280525011     A.U. after   15 cycles
 SCF Done:  E(RB3LYP) =  -919.344110750     A.U. after   16 cycles
 SCF Done:  E(RB3LYP) =  -919.372106878     A.U. after   15 cycles
 SCF Done:  E(RB3LYP) =  -919.394532090     A.U. after   15 cycles
 SCF Done:  E(RB3LYP) =  -919.404333278     A.U. after   15 cycles
 SCF Done:  E(RB3LYP) =  -919.408328729     A.U. after   15 cycles
 SCF Done:  E(RB3LYP) =  -919.410494719     A.U. after   15 cycles
 SCF Done:  E(RB3LYP) =  -919.423544266     A.U. after   12 cycles
 SCF Done:  E(RB3LYP) =  -919.423573308     A.U. after   12 cycles
 SCF Done:  E(RB3LYP) =  -919.423591005     A.U. after   12 cycles
 SCF Done:  E(RB3LYP) =  -919.423596755     A.U. after    9 cycles
 SCF Done:  E(RB3LYP) =  -919.423598861     A.U. after    9 cycles
 SCF Done:  E(RB3LYP) =  -919.423600223     A.U. after    9 cycles
 SCF Done:  E(RB3LYP) =  -919.423600667     A.U. after    8 cycles
 SCF Done:  E(RB3LYP) =  -919.423600850     A.U. after    7 cycles
 SCF Done:  E(RB3LYP) =  -919.423600870     A.U. after    7 cycles
 Optimization completed.
    -- Stationary point found.

 The electronic state is 1-A.
 Alpha  occ. eigenvalues --  -19.17302 -14.37814 -14.37599 -10.25457 -10.24384
 Alpha  occ. eigenvalues --  -10.21605 -10.21291 -10.21062 -10.21001 -10.20881
 Alpha  occ. eigenvalues --  -10.19839 -10.19727 -10.19483 -10.18920 -10.18552
 Alpha  occ. eigenvalues --  -10.17901 -10.17797 -10.17704 -10.17512 -10.17450
 Alpha  occ. eigenvalues --  -10.17409 -10.17214  -1.07450  -1.02735  -0.85579
 Alpha  occ. eigenvalues --   -0.84499  -0.81371  -0.80428  -0.79001  -0.76753
 Alpha  occ. eigenvalues --   -0.75439  -0.72100  -0.71322  -0.69407  -0.67327
 Alpha  occ. eigenvalues --   -0.64233  -0.63148  -0.60523  -0.59015  -0.56885
 Alpha  occ. eigenvalues --   -0.55981  -0.53413  -0.52521  -0.51667  -0.49015
 Alpha  occ. eigenvalues --   -0.48684  -0.48397  -0.47586  -0.45845  -0.45470
 Alpha  occ. eigenvalues --   -0.44308  -0.42937  -0.42564  -0.41977  -0.41558
 Alpha  occ. eigenvalues --   -0.41278  -0.39435  -0.38833  -0.38336  -0.37611
 Alpha  occ. eigenvalues --   -0.37029  -0.36729  -0.36389  -0.36005  -0.35681
 Alpha  occ. eigenvalues --   -0.34808  -0.34353  -0.33154  -0.31855  -0.30202
 Alpha  occ. eigenvalues --   -0.29355  -0.27040  -0.25481  -0.24858  -0.22498
 Alpha  occ. eigenvalues --   -0.20725  -0.16095
 Alpha virt. eigenvalues --   -0.08583  -0.06540  -0.02956   0.00682   0.02309
 Alpha virt. eigenvalues --    0.05263   0.07526   0.09656   0.09793   0.10217
 Alpha virt. eigenvalues --    0.11067   0.11898   0.12041   0.12832   0.13476

 Mulliken charges:
               1
     1  C   -0.484004
     2  C    0.145483
     3  C    0.076013
     4  C   -0.155035
     5  C   -0.106500
     6  C   -0.110594
     7  C   -0.155194
     8  C    0.088346
     9  C    0.183886
    10  C   -0.478714
    11  C   -0.357809
    12  C    0.367661
    13  O   -0.271408
    14  C   -0.136285
    15  C   -0.222373
    16  C    0.202814
    17  C   -0.286563
    18  C    0.070112
    19  N   -0.166510
    20  N   -0.129480
    21  C   -0.086982
    22  C   -0.071377
    23  H    0.120646
    24  H    0.134273
    25  H    0.130993
    26  H    0.095235
    27  H    0.091491
    28  H    0.091023
    29  H    0.103556
    30  H    0.129889
    31  H    0.141591
    32  H    0.113697
    33  H    0.101576
    34  H    0.128193
    35  H    0.127150
    36  H    0.122449
    37  H    0.126454
    38  H    0.121221
    39  H    0.121437
    40  H    0.083640
 Sum of Mulliken charges =  -0.00000

 Dipole moment (field-independent basis, Debye):
    X=             -3.3024    Y=              1.0189    Z=              1.3877  Tot=              3.7242
 Quadrupole moment (field-independent basis, Debye-Ang):
   XX=           -106.4472   YY=           -119.3192   ZZ=           -136.5183
   XY=              1.2892   XZ=              4.5426   YZ=             -2.3726

 Normal termination of Gaussian 16 at Sat May 20 19:13:49 2023.

 ----------------------------------------------------------------------
 #N Geom=AllCheck Guess=TCheck SCRF=Check GenChk RB3LYP/6-31G(2df,p) Fr
 eq
 ----------------------------------------------------------------------

 Structure from the checkpoint file:  "CC1dc2ccccc2dCqCrCdC2OCCdC2CdCNdNCdC1.chk"
 -------------------
 Title Card Required
 -------------------
 Charge =  0 Multiplicity = 1

                         Standard orientation:
 ---------------------------------------------------------------------
 Center     Atomic      Atomic             Coordinates (Angstroms)
 Number     Number       Type             X           Y           Z
 ---------------------------------------------------------------------
      1          6           0        2.523249    2.901474    0.755223
      2          6           0        1.822479    1.712009    0.107016
      3          6           0        2.158986    0.425507    0.509720
      4          6           0        3.449754    0.229104    1.147041
      5          6           0        4.103581   -0.959340    1.079634
      6          6           0        3.507099   -2.071012    0.400851
      7          6           0        2.212248   -1.998473    0.007426
      8          6           0        1.398540   -0.821654    0.276209
      9          6           0        0.040944   -0.988232    0.498441
     10          6           0       -0.540222   -2.384936    0.311955
     11          6           0       -0.822535   -0.004416    1.134469
     12          6           0       -2.173180    0.089427    0.998716
     13          8           0       -2.932701    0.764173    1.921417
     14          6           0       -4.318953    0.614166    1.598598
     15          6           0       -4.335333   -0.104861    0.285253
     16          6           0       -3.072317   -0.386283   -0.077484
     17          6           0       -2.512413   -0.860035   -1.357480
     18          6           0       -1.498083   -0.109726   -1.814901
     19          7           0       -0.449933   -0.520833   -2.652708
     20          7           0        0.564638    0.235109   -2.627081
     21          6           0        0.460751    1.546477   -2.102273
     22          6           0        0.990877    2.132211   -1.002549
     23          1           0        1.877169    3.782967    0.708938
     24          1           0        3.454874    3.167736    0.238892
     25          1           0        2.762024    2.728313    1.806250
     26          1           0        3.965032    1.084893    1.562342
     27          1           0        5.106640   -1.050224    1.483557
     28          1           0        4.085034   -2.973262    0.231460
     29          1           0        1.749693   -2.857804   -0.459132
     30          1           0       -0.033426   -3.097492    0.972018
     31          1           0       -0.429521   -2.751211   -0.713411
     32          1           0       -1.596368   -2.413002    0.573761
     33          1           0       -0.360075    0.671752    1.851447
     34          1           0       -4.791597    1.604909    1.538411
     35          1           0       -4.813583    0.064210    2.414215
     36          1           0       -5.231815   -0.262894   -0.298848
     37          1           0       -2.809624   -1.804432   -1.800928
     38          1           0       -1.323756    0.829783   -1.303334
     39          1           0       -0.119521    2.191081   -2.763153
     40          1           0        0.794656    3.202926   -0.990489
 ---------------------------------------------------------------------

 SCF Done:  E(RB3LYP) =  -919.423600870     A.U. after    1 cycles
