 Gaussian 16, Revision A.03,
 Gaussian 16:  ES64L-G16RevA.03 25-Dec-2016

 -----------------------------
 # opt freq b3lyp/6-31g(2df,p)
 -----------------------------

 -------------------
 Title Card Required
 -------------------
 Symbolic Z-matrix:
 Charge =  0 Multiplicity = 1

 SCF Done:  E(RB3LYP) =  -924.485886432     A.U. after   21 cycles
 SCF Done:  E(RB3LYP) =  -924.538112168     A.U. after   16 cycles
 SCF Done:  E(RB3LYP) =  -924.586815472     A.U. after   18 cycles
 SCF Done:  E(RB3LYP) =  -924.600697431     A.U. after   15 cycles
 SCF Done:  E(RB3LYP) =  -924.611753399     A.U. after   17 cycles
 SCF Done:  E(RB3LYP) =  -924.619442969     A.U. after   16 cycles
 SCF Done:  E(RB3LYP) =  -924.631541255     A.U. after   16 cycles
 SCF Done:  E(RB3LYP) =  -924.640677641     A.U. after   14 cycles
 SCF Done:  E(RB3LYP) =  -924.645190876     A.U. after   13 cycles
 SCF Done:  E(RB3LYP) =  -924.647035768     A.U. after   13 cycles
 SCF Done:  E(RB3LYP) =  -924.663139581     A.U. after    9 cycles
 SCF Done:  E(RB3LYP) =  -924.663141151     A.U. after    9 cycles
 SCF Done:  E(RB3LYP) =  -924.663142540     A.U. after    8 cycles
 SCF Done:  E(RB3LYP) =  -924.663144124     A.U. after    8 cycles
 SCF Done:  E(RB3LYP) =  -924.663145602     A.U. after    9 cycles
 SCF Done:  E(RB3LYP) =  -924.663146215     A.U. after    8 cycles
 SCF Done:  E(RB3LYP) =  -924.663146701     A.U. after    8 cycles
 SCF Done:  E(RB3LYP) =  -924.663146989     A.U. after    8 cycles
 SCF Done:  E(RB3LYP) =  -924.663147093     A.U. after    7 cycles
 Optimization completed.
    -- Stationary point found.
 Normal termination of Gaussian 16 at Sat May 20 12:58:35 2023.

 ----------------------------------------------------------------------
 #N Geom=AllCheck Guess=TCheck SCRF=Check GenChk RB3LYP/6-31G(2df,p) Fr
 eq
 ----------------------------------------------------------------------

 Structure from the checkpoint file:  "CC1dNC2dSqCqdOrNdN2rCqCrdN1.chk"
 -------------------
 Title Card Required
 -------------------
 Charge =  0 Multiplicity = 1

                         Standard orientation:
 ---------------------------------------------------------------------
 Center     Atomic      Atomic             Coordinates (Angstroms)
 Number     Number       Type             X           Y           Z
 ---------------------------------------------------------------------
      1          6           0        2.948005   -2.257403    0.000059
      2          6           0        1.916747   -1.170930   -0.000214
      3          7           0        0.669418   -1.503961   -0.000007
      4          6           0       -0.351483   -0.603427    0.000143
      5         16           0       -0.046525    1.178442    0.000670
      6          6           0       -3.714707   -0.100938   -0.000085
      7          8           0       -4.877357    0.021377   -0.000584
      8          7           0       -2.499022   -0.035894    0.000286
      9          7           0       -1.563445   -1.050438    0.000018
     10          6           0        1.718152    1.154764   -0.000165
     11          6           0        2.338385    2.522374   -0.000379
     12          7           0        2.465236    0.111520   -0.000558
     13          1           0        2.473971   -3.238000   -0.001354
     14          1           0        3.593932   -2.152526    0.878587
     15          1           0        3.596434   -2.150808   -0.876360
     16          1           0        2.019780    3.088270    0.881409
     17          1           0        2.018970    3.088380   -0.881800
     18          1           0        3.424268    2.423361   -0.000866
 ---------------------------------------------------------------------

 SCF Done:  E(RB3LYP) =  -924.663147093     A.U. after    1 cycles

 The electronic state is 1-A.
 Alpha  occ. eigenvalues --  -88.92222 -19.19900 -14.38368 -14.37486 -14.35137
 Alpha  occ. eigenvalues --  -14.34867 -10.32108 -10.29693 -10.29172 -10.28648
 Alpha  occ. eigenvalues --  -10.21532 -10.19452  -7.98522  -5.94893  -5.94569
 Alpha  occ. eigenvalues --   -5.94247  -1.11047  -1.02854  -0.99561  -0.92714
 Alpha  occ. eigenvalues --   -0.87378  -0.81239  -0.75243  -0.75067  -0.66339
 Alpha  occ. eigenvalues --   -0.62695  -0.55793  -0.54777  -0.50869  -0.48001
 Alpha  occ. eigenvalues --   -0.47031  -0.46915  -0.46419  -0.44546  -0.44011
 Alpha  occ. eigenvalues --   -0.42191  -0.41465  -0.41367  -0.40128  -0.37975
 Alpha  occ. eigenvalues --   -0.37313  -0.33059  -0.30647  -0.30594  -0.26856
 Alpha  occ. eigenvalues --   -0.26402  -0.23144
 Alpha virt. eigenvalues --   -0.08332  -0.02734  -0.02033   0.03409   0.06344
 Alpha virt. eigenvalues --    0.06547   0.09027   0.09547   0.11336   0.11790
 Alpha virt. eigenvalues --    0.14665   0.14830   0.15925   0.16576   0.17110

 Mulliken charges:
               1
     1  C   -0.443596
     2  C    0.349706
     3  N   -0.282502
     4  C    0.334898
     5  S   -0.064692
     6  C    0.581291
     7  O   -0.280919
     8  N   -0.338933
     9  N   -0.265003
    10  C    0.252108
    11  C   -0.471902
    12  N   -0.292354
    13  H    0.147678
    14  H    0.147922
    15  H    0.147888
    16  H    0.161020
    17  H    0.161022
    18  H    0.156367
 Sum of Mulliken charges =  -0.00000

 Dipole moment (field-independent basis, Debye):
    X=              4.0085    Y=              2.0545    Z=              0.0009  Tot=              4.5043
 Quadrupole moment (field-independent basis, Debye-Ang):
   XX=            -80.5081   YY=            -70.5409   ZZ=            -73.1151
   XY=              0.2150   XZ=              0.0002   YZ=             -0.0016

  Exact polarizability: 203.055  -0.513 114.844   0.004   0.002  60.160
 Approx polarizability: 345.514   2.184 190.414   0.007   0.013  99.886

                      1                      2                      3
                      A                      A                      A
 Frequencies --     39.2268                66.0469                79.0979
 Red. masses --      9.6180                 3.7038                 1.2561
 Frc consts  --      0.0087                 0.0095                 0.0046
 IR Inten    --      0.0165                 0.1673                 1.4117

                      4                      5                      6
                      A                      A                      A
 Frequencies --     79.7075               130.7941               163.1914
 Red. masses --      9.1351                 1.3849                 2.4542
 Frc consts  --      0.0342                 0.0140                 0.0385
 IR Inten    --      0.2976                 0.6939                 0.1111

                      7                      8                      9
                      A                      A                      A
 Frequencies --    188.6825               226.4389               274.5479
 Red. masses --      3.7035                 9.1166                 2.6520
 Frc consts  --      0.0777                 0.2754                 0.1178
 IR Inten    --      0.7263                13.5412                 0.0910

                     10                     11                     12
                      A                      A                      A
 Frequencies --    313.3594               349.4589               411.1210
 Red. masses --      5.8351                 9.6901                 5.7396
 Frc consts  --      0.3376                 0.6972                 0.5716
 IR Inten    --      2.4657                 0.3951                 2.2607

                     13                     14                     15
                      A                      A                      A
 Frequencies --    464.1428               517.0067               524.5319
 Red. masses --      6.9702                 3.4835                 5.6569
 Frc consts  --      0.8847                 0.5486                 0.9170
 IR Inten    --      2.2669                 0.0188                 1.3529

                     16                     17                     18
                      A                      A                      A
 Frequencies --    565.7341               588.2530               593.8016
 Red. masses --     11.5873                11.3575                 6.2536
 Frc consts  --      2.1850                 2.3156                 1.2992
 IR Inten    --     14.8903                 0.6287                 5.4831

                     19                     20                     21
                      A                      A                      A
 Frequencies --    619.3433               671.0574               699.2649
 Red. masses --      5.8510                12.2037                 5.2155
 Frc consts  --      1.3223                 3.2379                 1.5026
 IR Inten    --      6.8930               133.3941                 8.3046

                     22                     23                     24
                      A                      A                      A
 Frequencies --    732.7658               891.0098               947.3536
 Red. masses --      6.4815                 4.9823                 3.0811
 Frc consts  --      2.0505                 2.3305                 1.6292
 IR Inten    --      2.9477                43.4023                 2.6998

                     25                     26                     27
                      A                      A                      A
 Frequencies --   1001.5458              1037.4753              1047.5013
 Red. masses --      4.0070                 1.5379                 1.7792
 Frc consts  --      2.3682                 0.9753                 1.1502
 IR Inten    --     36.0856                 4.0551                16.3951

                     28                     29                     30
                      A                      A                      A
 Frequencies --   1060.9510              1171.0965              1210.3216
 Red. masses --      1.6732                 3.1207                 7.4337
 Frc consts  --      1.1097                 2.5217                 6.4158
 IR Inten    --      1.6408                60.9066                 5.0235

                     31                     32                     33
                      A                      A                      A
 Frequencies --   1298.7308              1397.8322              1405.1583
 Red. masses --      4.4657                 1.2620                 1.3863
 Frc consts  --      4.4379                 1.4528                 1.6127
 IR Inten    --    182.3039                 8.9211                24.4762

                     34                     35                     36
                      A                      A                      A
 Frequencies --   1451.4487              1461.6912              1465.5130
 Red. masses --      5.3507                 1.0986                 1.2161
 Frc consts  --      6.6415                 1.3830                 1.5389
 IR Inten    --      3.8699                31.4006                50.2857

                     37                     38                     39
                      A                      A                      A
 Frequencies --   1470.5294              1472.3249              1586.3824
 Red. masses --      1.0464                 1.0427                 7.9265
 Frc consts  --      1.3332                 1.3318                11.7530
 IR Inten    --     11.5724                 4.4819               271.8988

                     40                     41                     42
                      A                      A                      A
 Frequencies --   1630.2225              1677.1754              2319.4097
 Red. masses --     11.9019                 9.5997                12.7384
 Frc consts  --     18.6363                15.9097                40.3758
 IR Inten    --     17.1429               351.1541              2059.1397

                     43                     44                     45
                      A                      A                      A
 Frequencies --   3042.8172              3042.9095              3097.5667
 Red. masses --      1.0374                 1.0371                 1.0979
 Frc consts  --      5.6592                 5.6578                 6.2067
 IR Inten    --      3.2064                 2.2896                 5.4122

                     46                     47                     48
                      A                      A                      A
 Frequencies --   3103.8899              3155.6233              3166.6534
 Red. masses --      1.0991                 1.1016                 1.1013
 Frc consts  --      6.2388                 6.4631                 6.5064
 IR Inten    --      2.6848                 3.6987                 5.6339

 - Thermochemistry -
 -------------------
 Temperature   298.150 Kelvin.  Pressure   1.00000 Atm.
 Atom     1 has atomic number  6 and mass  12.00000

 Molecular mass:   182.02623 amu.
 Principal axes and moments of inertia in atomic units:
                           1         2         3
     Eigenvalues --  1122.439423799.307014899.47285
           X            0.99999  -0.00346  -0.00000
           Y            0.00346   0.99999  -0.00002
           Z            0.00000   0.00002   1.00000
 This molecule is an asymmetric top.
 Rotational symmetry number  1.
 Warning -- assumption of classical behavior for rotation
           may cause significant error
 Rotational temperatures (Kelvin)      0.07717     0.02280     0.01768
 Rotational constants (GHZ):           1.60787     0.47502     0.36835
 Zero-point vibrational energy     322457.6 (Joules/Mol)
                                   77.06923 (Kcal/Mol)
 Warning -- explicit consideration of  19 degrees of freedom as
           vibrations may cause significant error
 Vibrational temperatures:     56.44    95.03   113.80   114.68   188.18
          (Kelvin)            234.80   271.47   325.80   395.01   450.85
                              502.79   591.51   667.80   743.86   754.68
                              813.97   846.36   854.35   891.10   965.50
                             1006.09  1054.29  1281.96  1363.03  1441.00
                             1492.70  1507.12  1526.47  1684.95  1741.38
                             1868.58  2011.17  2021.71  2088.31  2103.05
                             2108.55  2115.76  2118.35  2282.45  2345.53
                             2413.08  3337.11  4377.94  4378.07  4456.71
                             4465.81  4540.24  4556.11

 Zero-point correction=                           0.122818 (Hartree/Particle)
 Thermal correction to Energy=                    0.134769
 Thermal correction to Enthalpy=                  0.135713
 Thermal correction to Gibbs Free Energy=         0.083228
 Sum of electronic and zero-point Energies=           -924.540329
 Sum of electronic and thermal Energies=              -924.528378
 Sum of electronic and thermal Enthalpies=            -924.527434
 Sum of electronic and thermal Free Energies=         -924.579919

                     E (Thermal)             CV                S
                      KCal/Mol        Cal/Mol-Kelvin    Cal/Mol-Kelvin
 Total                   84.569             41.777            110.464
 Electronic               0.000              0.000              0.000
 Translational            0.889              2.981             41.503
 Rotational               0.889              2.981             31.414
 Vibrational             82.791             35.815             37.547
 Vibration     1          0.594              1.981              5.298
 Vibration     2          0.597              1.970              4.268
 Vibration     3          0.600              1.963              3.913
 Vibration     4          0.600              1.963              3.898
 Vibration     5          0.612              1.923              2.934
 Vibration     6          0.623              1.888              2.512
 Vibration     7          0.633              1.855              2.241
 Vibration     8          0.650              1.801              1.907
 Vibration     9          0.677              1.720              1.567
 Vibration    10          0.701              1.648              1.345
 Vibration    11          0.727              1.576              1.169
 Vibration    12          0.775              1.446              0.923
 Vibration    13          0.822              1.330              0.754
 Vibration    14          0.872              1.212              0.617
 Vibration    15          0.879              1.196              0.600
 Vibration    16          0.922              1.105              0.513
 Vibration    17          0.945              1.057              0.470
 Vibration    18          0.951              1.045              0.460
 Vibration    19          0.979              0.991              0.418

                           ! Non-Optimized Parameters !
 Normal termination of Gaussian 16 at Sat May 20 13:35:41 2023.
