 Gaussian 16, Revision A.03,
 Gaussian 16:  ES64L-G16RevA.03 25-Dec-2016

 -----------------------------
 # opt freq b3lyp/6-31g(2df,p)
 -----------------------------

 -------------------
 Title Card Required
 -------------------
 Symbolic Z-matrix:
 Charge =  0 Multiplicity = 1

 SCF Done:  E(RB3LYP) =  -721.038620173     A.U. after   29 cycles
 SCF Done:  E(RB3LYP) =  -721.124129470     A.U. after   19 cycles
 SCF Done:  E(RB3LYP) =  -721.204906954     A.U. after   17 cycles
 SCF Done:  E(RB3LYP) =  -721.252316289     A.U. after   16 cycles
 SCF Done:  E(RB3LYP) =  -721.303321356     A.U. after   15 cycles
 SCF Done:  E(RB3LYP) =  -721.354336485     A.U. after   15 cycles
 SCF Done:  E(RB3LYP) =  -721.385761018     A.U. after   15 cycles
 SCF Done:  E(RB3LYP) =  -721.402054654     A.U. after   15 cycles
 SCF Done:  E(RB3LYP) =  -721.410336804     A.U. after   15 cycles
 SCF Done:  E(RB3LYP) =  -721.419500893     A.U. after   16 cycles
 SCF Done:  E(RB3LYP) =  -721.486065385     A.U. after   13 cycles
 SCF Done:  E(RB3LYP) =  -721.486967064     A.U. after   12 cycles
 SCF Done:  E(RB3LYP) =  -721.487133700     A.U. after   12 cycles
 SCF Done:  E(RB3LYP) =  -721.487230848     A.U. after   11 cycles
 SCF Done:  E(RB3LYP) =  -721.487249728     A.U. after    9 cycles
 SCF Done:  E(RB3LYP) =  -721.487257112     A.U. after    9 cycles
 SCF Done:  E(RB3LYP) =  -721.487259836     A.U. after    8 cycles
 SCF Done:  E(RB3LYP) =  -721.487260887     A.U. after    8 cycles
 SCF Done:  E(RB3LYP) =  -721.487261119     A.U. after    7 cycles
 Optimization completed.
    -- Stationary point found.
 Normal termination of Gaussian 16 at Thu May 18 06:25:44 2023.

 ----------------------------------------------------------------------
 #N Geom=AllCheck Guess=TCheck SCRF=Check GenChk RB3LYP/6-31G(2df,p) Fr
 eq
 ----------------------------------------------------------------------

 Structure from the checkpoint file:  "CC1dCCdCNdC2NdNCdC2CdCCdCNdC1.chk"
 -------------------
 Title Card Required
 -------------------
 Charge =  0 Multiplicity = 1

                         Standard orientation:
 ---------------------------------------------------------------------
 Center     Atomic      Atomic             Coordinates (Angstroms)
 Number     Number       Type             X           Y           Z
 ---------------------------------------------------------------------
      1          6           0        4.200978   -1.763654   -0.234929
      2          6           0        3.233616   -0.654922    0.083854
      3          6           0        1.875631   -0.984221    0.508705
      4          6           0        1.008325   -1.923368    0.069016
      5          6           0       -0.381300   -1.648583    0.411841
      6          7           0       -1.390597   -1.861407   -0.351191
      7          6           0       -2.493608   -1.046473   -0.170230
      8          7           0       -3.724000   -1.409928    0.017109
      9          7           0       -4.509297   -0.223261    0.143548
     10          6           0       -3.743811    0.823097    0.092461
     11          6           0       -2.367348    0.442653   -0.153450
     12          6           0       -1.182430    1.074281   -0.320155
     13          6           0       -0.744822    2.420258   -0.042572
     14          6           0        0.578851    2.727122    0.021933
     15          6           0        1.633757    1.770028   -0.306838
     16          7           0        2.790349    1.751518    0.249674
     17          6           0        3.609575    0.652152    0.008345
     18          1           0        4.337818   -2.434563    0.620437
     19          1           0        5.177275   -1.369530   -0.527417
     20          1           0        3.825666   -2.379046   -1.061786
     21          1           0        1.464958   -0.274478    1.226536
     22          1           0        1.239959   -2.642812   -0.709220
     23          1           0       -0.495512   -1.043405    1.322167
     24          1           0       -4.154187    1.823235    0.149545
     25          1           0       -0.386327    0.410794   -0.630495
     26          1           0       -1.478616    3.168698    0.241262
     27          1           0        0.895727    3.693420    0.402754
     28          1           0        1.393932    1.018980   -1.064872
     29          1           0        4.649627    0.900032   -0.190777
 ---------------------------------------------------------------------

 SCF Done:  E(RB3LYP) =  -721.487261119     A.U. after    1 cycles

 The electronic state is 1-A.
 Alpha  occ. eigenvalues --  -14.36277 -14.34315 -14.34226 -14.32494 -10.26306
 Alpha  occ. eigenvalues --  -10.25440 -10.24601 -10.23813 -10.23796 -10.23692
 Alpha  occ. eigenvalues --  -10.23675 -10.22498 -10.22458 -10.21967 -10.21421
 Alpha  occ. eigenvalues --  -10.21397 -10.20518  -1.00270  -0.96455  -0.94412
 Alpha  occ. eigenvalues --   -0.85805  -0.84279  -0.80559  -0.79798  -0.77240
 Alpha  occ. eigenvalues --   -0.72634  -0.69649  -0.66352  -0.64837  -0.60233
 Alpha  occ. eigenvalues --   -0.59190  -0.57682  -0.55168  -0.54826  -0.52769
 Alpha  occ. eigenvalues --   -0.50713  -0.49495  -0.47631  -0.47293  -0.45344
 Alpha  occ. eigenvalues --   -0.44436  -0.43856  -0.43195  -0.42177  -0.41033
 Alpha  occ. eigenvalues --   -0.40832  -0.39741  -0.38216  -0.37656  -0.35583
 Alpha  occ. eigenvalues --   -0.33823  -0.31765  -0.30863  -0.29869  -0.28472
 Alpha  occ. eigenvalues --   -0.26639  -0.24730  -0.23848  -0.22287
 Alpha virt. eigenvalues --   -0.12014  -0.06780  -0.05296   0.00112   0.02290
 Alpha virt. eigenvalues --    0.04974   0.06325   0.08251   0.08533   0.09597
 Alpha virt. eigenvalues --    0.10365   0.11487   0.12367   0.13367   0.13800

 Mulliken charges:
               1
     1  C   -0.483092
     2  C    0.241185
     3  C   -0.112748
     4  C   -0.169484
     5  C   -0.014449
     6  N   -0.249573
     7  C    0.350437
     8  N   -0.294828
     9  N   -0.179630
    10  C   -0.105402
    11  C    0.204958
    12  C   -0.192081
    13  C   -0.098090
    14  C   -0.114111
    15  C    0.007374
    16  N   -0.209564
    17  C   -0.091307
    18  H    0.140490
    19  H    0.130650
    20  H    0.139437
    21  H    0.118497
    22  H    0.119782
    23  H    0.109470
    24  H    0.120221
    25  H    0.122617
    26  H    0.124007
    27  H    0.136088
    28  H    0.134335
    29  H    0.114810
 Sum of Mulliken charges =   0.00000

 Dipole moment (field-independent basis, Debye):
    X=              6.8972    Y=              3.5003    Z=             -0.2290  Tot=              7.7380
 Quadrupole moment (field-independent basis, Debye-Ang):
   XX=           -118.8191   YY=            -95.3710   ZZ=            -98.2229
   XY=            -19.4471   XZ=             -3.0806   YZ=             -0.9990

  Exact polarizability: 300.160  11.509 186.714   0.187   5.670  83.207
 Approx polarizability: 548.196  92.614 351.973  15.955  14.405 149.769

                      1                      2                      3
                      A                      A                      A
 Frequencies --     65.2400                94.7669               133.5037
 Red. masses --      5.9658                 4.4302                 4.5049
 Frc consts  --      0.0150                 0.0234                 0.0473
 IR Inten    --      1.3256                 5.9458                 0.7206

                      4                      5                      6
                      A                      A                      A
 Frequencies --    145.4497               146.7066               168.4921
 Red. masses --      4.6053                 4.2415                 1.5149
 Frc consts  --      0.0574                 0.0538                 0.0253
 IR Inten    --      3.8625                 0.7791                 0.0542

                      7                      8                      9
                      A                      A                      A
 Frequencies --    187.0048               209.9717               235.7932
 Red. masses --      2.4976                 2.9002                 2.8103
 Frc consts  --      0.0515                 0.0753                 0.0921
 IR Inten    --      0.7021                 5.0706                 2.8182

                     10                     11                     12
                      A                      A                      A
 Frequencies --    248.5790               260.4365               309.9950
 Red. masses --      3.4021                 3.6358                 2.9875
 Frc consts  --      0.1239                 0.1453                 0.1692
 IR Inten    --     13.2519                 0.7843                10.0261

                     13                     14                     15
                      A                      A                      A
 Frequencies --    326.7295               346.9935               377.5981
 Red. masses --      4.1922                 4.3412                 4.1872
 Frc consts  --      0.2637                 0.3080                 0.3518
 IR Inten    --      5.6449                 0.6201                 0.7645

                     16                     17                     18
                      A                      A                      A
 Frequencies --    408.4585               427.8411               456.8431
 Red. masses --      4.5330                 4.7051                 3.9095
 Frc consts  --      0.4456                 0.5074                 0.4807
 IR Inten    --      7.7029                 9.7019                 9.0136

                     19                     20                     21
                      A                      A                      A
 Frequencies --    472.1114               522.9257               577.2900
 Red. masses --      3.1522                 3.3049                 5.7151
 Frc consts  --      0.4140                 0.5325                 1.1222
 IR Inten    --      1.4633                 2.5243                 5.9881

                     22                     23                     24
                      A                      A                      A
 Frequencies --    582.6454               594.7105               615.4702
 Red. masses --      4.7662                 3.4866                 4.8023
 Frc consts  --      0.9533                 0.7266                 1.0718
 IR Inten    --      0.4095                11.7891                 0.0789

                     25                     26                     27
                      A                      A                      A
 Frequencies --    687.1645               704.1982               750.5105
 Red. masses --      3.8383                 6.3992                 3.2077
 Frc consts  --      1.0678                 1.8697                 1.0645
 IR Inten    --     12.6106                37.2102                17.0105

                     28                     29                     30
                      A                      A                      A
 Frequencies --    816.2308               825.8469               853.2006
 Red. masses --      2.7816                 2.0618                 2.3999
 Frc consts  --      1.0919                 0.8285                 1.0293
 IR Inten    --      6.1678                28.6804                11.6926

                     31                     32                     33
                      A                      A                      A
 Frequencies --    865.3477               889.6587               898.5344
 Red. masses --      1.6714                 3.9231                 1.6264
 Frc consts  --      0.7374                 1.8295                 0.7737
 IR Inten    --      2.5614                15.4528                15.5848

                     34                     35                     36
                      A                      A                      A
 Frequencies --    906.9533               929.5262               967.0167
 Red. masses --      2.8102                 4.8361                 1.6601
 Frc consts  --      1.3619                 2.4619                 0.9146
 IR Inten    --     30.6300                 8.6262                12.3507

                     37                     38                     39
                      A                      A                      A
 Frequencies --    991.4908              1007.0847              1022.3360
 Red. masses --      1.3789                 1.4231                 1.4946
 Frc consts  --      0.7987                 0.8504                 0.9204
 IR Inten    --     18.8108                10.1743                 2.6372

                     40                     41                     42
                      A                      A                      A
 Frequencies --   1023.6128              1041.3261              1044.0989
 Red. masses --      1.4625                 1.5413                 2.2294
 Frc consts  --      0.9029                 0.9847                 1.4319
 IR Inten    --      6.7988                19.6073                19.9251

                     43                     44                     45
                      A                      A                      A
 Frequencies --   1061.7359              1095.3155              1134.9432
 Red. masses --      1.4957                 2.9015                 3.7141
 Frc consts  --      0.9934                 2.0509                 2.8187
 IR Inten    --      1.5367                18.4138                32.6210

                     46                     47                     48
                      A                      A                      A
 Frequencies --   1152.2827              1185.8433              1228.9210
 Red. masses --      3.0355                 2.1690                 1.4857
 Frc consts  --      2.3746                 1.7971                 1.3220
 IR Inten    --     48.2064                 0.8255                 2.1633

                     49                     50                     51
                      A                      A                      A
 Frequencies --   1239.7330              1254.6019              1269.3455
 Red. masses --      1.4782                 2.0698                 1.5958
 Frc consts  --      1.3386                 1.9195                 1.5149
 IR Inten    --      4.3115                 2.4259                10.0300

                     52                     53                     54
                      A                      A                      A
 Frequencies --   1292.2812              1358.0771              1366.4994
 Red. masses --      4.9834                 1.3481                 1.4108
 Frc consts  --      4.9034                 1.4650                 1.5522
 IR Inten    --     71.2482                 2.5404                 2.1064

                     55                     56                     57
                      A                      A                      A
 Frequencies --   1372.3587              1413.4571              1427.1405
 Red. masses --      1.6578                 1.2572                 1.3071
 Frc consts  --      1.8396                 1.4798                 1.5685
 IR Inten    --      3.1435                 1.3269                12.2571

                     58                     59                     60
                      A                      A                      A
 Frequencies --   1432.1711              1445.9330              1475.8059
 Red. masses --      1.3966                 1.7042                 1.0467
 Frc consts  --      1.6878                 2.0992                 1.3431
 IR Inten    --      3.8511                 0.8697                 7.5003

                     61                     62                     63
                      A                      A                      A
 Frequencies --   1487.3787              1524.5764              1569.8661
 Red. masses --      1.0941                 6.5035                 9.0268
 Frc consts  --      1.4261                 8.9063                13.1072
 IR Inten    --      3.1955                45.0991               137.8924

                     64                     65                     66
                      A                      A                      A
 Frequencies --   1586.1362              1601.9182              1640.6279
 Red. masses --      5.1200                 5.6890                 5.1732
 Frc consts  --      7.5894                 8.6014                 8.2041
 IR Inten    --     28.6134                12.9488                22.9779

                     67                     68                     69
                      A                      A                      A
 Frequencies --   1658.2687              1664.3769              1683.9879
 Red. masses --      6.0624                 7.1735                 7.6816
 Frc consts  --      9.8221                11.7081                12.8346
 IR Inten    --     86.9000                 1.7474               178.1845

                     70                     71                     72
                      A                      A                      A
 Frequencies --   3010.6306              3026.2812              3068.0309
 Red. masses --      1.0843                 1.0376                 1.0838
 Frc consts  --      5.7902                 5.5989                 6.0108
 IR Inten    --     23.6698                24.6220                12.1432

                     73                     74                     75
                      A                      A                      A
 Frequencies --   3078.0760              3119.8274              3122.5970
 Red. masses --      1.0984                 1.1004                 1.0845
 Frc consts  --      6.1316                 6.3104                 6.2306
 IR Inten    --     15.7932                12.4837                 5.7725

                     76                     77                     78
                      A                      A                      A
 Frequencies --   3158.0383              3172.8278              3190.8047
 Red. masses --      1.0885                 1.0857                 1.0941
 Frc consts  --      6.3958                 6.4397                 6.5633
 IR Inten    --     21.0473                 0.9783                 4.5077

                     79                     80                     81
                      A                      A                      A
 Frequencies --   3192.9128              3214.0156              3214.7246
 Red. masses --      1.0914                 1.0943                 1.0831
 Frc consts  --      6.5554                 6.6604                 6.5946
 IR Inten    --      4.4413                 8.3185                 2.2531

 - Thermochemistry -
 -------------------
 Temperature   298.150 Kelvin.  Pressure   1.00000 Atm.
 Atom     1 has atomic number  6 and mass  12.00000

 Molecular mass:   224.10620 amu.
 Principal axes and moments of inertia in atomic units:
                           1         2         3
     Eigenvalues --  2000.513425936.882707799.35012
           X            0.99954  -0.03004  -0.00415
           Y            0.03006   0.99953   0.00577
           Z            0.00398  -0.00589   0.99997
 This molecule is an asymmetric top.
 Rotational symmetry number  1.
 Warning -- assumption of classical behavior for rotation
           may cause significant error
 Rotational temperatures (Kelvin)      0.04330     0.01459     0.01111
 Rotational constants (GHZ):           0.90214     0.30399     0.23140
 Zero-point vibrational energy     594137.6 (Joules/Mol)
                                  142.00229 (Kcal/Mol)
 Warning -- explicit consideration of  24 degrees of freedom as
           vibrations may cause significant error
 Vibrational temperatures:     93.87   136.35   192.08   209.27   211.08
          (Kelvin)            242.42   269.06   302.10   339.25   357.65
                              374.71   446.01   470.09   499.25   543.28
                              587.68   615.57   657.30   679.26   752.37
                              830.59   838.30   855.66   885.52   988.68
                             1013.18  1079.82  1174.37  1188.21  1227.57
                             1245.04  1280.02  1292.79  1304.90  1337.38
                             1391.32  1426.53  1448.97  1470.91  1472.75
                             1498.24  1502.23  1527.60  1575.91  1632.93
                             1657.88  1706.16  1768.14  1783.70  1805.09
                             1826.31  1859.30  1953.97  1966.09  1974.52
                             2033.65  2053.34  2060.57  2080.38  2123.36
                             2140.01  2193.53  2258.69  2282.10  2304.80
                             2360.50  2385.88  2394.67  2422.88  4331.63
                             4354.14  4414.21  4428.66  4488.74  4492.72
                             4543.71  4564.99  4590.86  4593.89  4624.25
                             4625.27

 Zero-point correction=                           0.226295 (Hartree/Particle)
 Thermal correction to Energy=                    0.240618
 Thermal correction to Enthalpy=                  0.241562
 Thermal correction to Gibbs Free Energy=         0.185860
 Sum of electronic and zero-point Energies=           -721.260966
 Sum of electronic and thermal Energies=              -721.246643
 Sum of electronic and thermal Enthalpies=            -721.245699
 Sum of electronic and thermal Free Energies=         -721.301401

                     E (Thermal)             CV                S
                      KCal/Mol        Cal/Mol-Kelvin    Cal/Mol-Kelvin
 Total                  150.990             56.497            117.236
 Electronic               0.000              0.000              0.000
 Translational            0.889              2.981             42.123
 Rotational               0.889              2.981             32.893
 Vibrational            149.213             50.535             42.219
 Vibration     1          0.597              1.971              4.292
 Vibration     2          0.603              1.953              3.559
 Vibration     3          0.613              1.920              2.895
 Vibration     4          0.617              1.908              2.731
 Vibration     5          0.617              1.906              2.715
 Vibration     6          0.625              1.881              2.452
 Vibration     7          0.632              1.858              2.257
 Vibration     8          0.642              1.826              2.044
 Vibration     9          0.655              1.786              1.834
 Vibration    10          0.662              1.765              1.741
 Vibration    11          0.668              1.745              1.659
 Vibration    12          0.699              1.655              1.362
 Vibration    13          0.710              1.622              1.276
 Vibration    14          0.725              1.581              1.180
 Vibration    15          0.748              1.518              1.049
 Vibration    16          0.773              1.452              0.932
 Vibration    17          0.789              1.410              0.866
 Vibration    18          0.815              1.346              0.775
 Vibration    19          0.829              1.312              0.732
 Vibration    20          0.878              1.199              0.603
 Vibration    21          0.934              1.080              0.490
 Vibration    22          0.939              1.069              0.480
 Vibration    23          0.952              1.043              0.459
 Vibration    24          0.975              0.999              0.424

 Optimization completed.
    -- Stationary point found.
 Normal termination of Gaussian 16 at Thu May 18 09:05:18 2023.
