 Gaussian 16, Revision A.03,
 Gaussian 16:  ES64L-G16RevA.03 25-Dec-2016

 -----------------------------
 # opt freq b3lyp/6-31g(2df,p)
 -----------------------------

 -------------------
 Title Card Required
 -------------------
 Symbolic Z-matrix:
 Charge =  0 Multiplicity = 1

 SCF Done:  E(RB3LYP) =  -994.788228013     A.U. after   25 cycles
 SCF Done:  E(RB3LYP) =  -994.897219077     A.U. after   15 cycles
 SCF Done:  E(RB3LYP) =  -995.042948054     A.U. after   15 cycles
 SCF Done:  E(RB3LYP) =  -995.096555855     A.U. after   15 cycles
 SCF Done:  E(RB3LYP) =  -995.174325405     A.U. after   14 cycles
 SCF Done:  E(RB3LYP) =  -995.232555738     A.U. after   13 cycles
 SCF Done:  E(RB3LYP) =  -995.259922957     A.U. after   13 cycles
 SCF Done:  E(RB3LYP) =  -995.275956708     A.U. after   13 cycles
 SCF Done:  E(RB3LYP) =  -995.281457263     A.U. after   13 cycles
 SCF Done:  E(RB3LYP) =  -995.291957116     A.U. after   13 cycles
 SCF Done:  E(RB3LYP) =  -995.319714744     A.U. after   12 cycles
 SCF Done:  E(RB3LYP) =  -995.319835141     A.U. after   11 cycles
 SCF Done:  E(RB3LYP) =  -995.319906934     A.U. after   11 cycles
 SCF Done:  E(RB3LYP) =  -995.319952919     A.U. after   10 cycles
 SCF Done:  E(RB3LYP) =  -995.319966218     A.U. after    9 cycles
 SCF Done:  E(RB3LYP) =  -995.319971291     A.U. after    8 cycles
 SCF Done:  E(RB3LYP) =  -995.319973787     A.U. after    8 cycles
 SCF Done:  E(RB3LYP) =  -995.319974781     A.U. after    8 cycles
 SCF Done:  E(RB3LYP) =  -995.319974960     A.U. after    7 cycles
 Optimization completed.
    -- Stationary point found.
 Normal termination of Gaussian 16 at Fri May 19 23:52:09 2023.

 ----------------------------------------------------------------------
 #N Geom=AllCheck Guess=TCheck SCRF=Check GenChk RB3LYP/6-31G(2df,p) Fr
 eq
 ----------------------------------------------------------------------

 Structure from the checkpoint file:  "CC1dCqCrSC2dCNC2dCCdCCdCCdC1.chk"
 -------------------
 Title Card Required
 -------------------
 Charge =  0 Multiplicity = 1

                         Standard orientation:
 ---------------------------------------------------------------------
 Center     Atomic      Atomic             Coordinates (Angstroms)
 Number     Number       Type             X           Y           Z
 ---------------------------------------------------------------------
      1          6           0        1.322217   -2.763679    0.910289
      2          6           0        1.038482   -1.526906    0.076148
      3          6           0        2.078409   -0.786803   -0.402761
      4          6           0        3.528602   -1.211827   -0.360705
      5         16           0        1.950379    0.848562   -1.187625
      6          6           0        1.155184    1.837363    0.026484
      7          6           0        1.308255    1.964657    1.380156
      8          7           0       -0.081450    2.175775    1.648545
      9          6           0       -0.280344    2.111032    0.209316
     10          6           0       -1.373209    1.914988   -0.544978
     11          6           0       -2.500273    1.186498   -0.034773
     12          6           0       -3.212690    0.365726   -0.836461
     13          6           0       -3.675154   -0.937311   -0.377931
     14          6           0       -2.855816   -1.845389    0.204388
     15          6           0       -1.407756   -1.878160    0.436992
     16          6           0       -0.374853   -1.229773   -0.162223
     17          1           0        0.871489   -2.657326    1.903991
     18          1           0        2.384262   -2.941954    1.064195
     19          1           0        0.883505   -3.658676    0.455523
     20          1           0        3.654573   -2.294483   -0.301366
     21          1           0        4.060519   -0.754083    0.483807
     22          1           0        4.041187   -0.867931   -1.264800
     23          1           0        2.082428    1.792911    2.115106
     24          1           0       -0.370822    3.020824    2.137532
     25          1           0       -1.209700    1.892813   -1.619858
     26          1           0       -2.508795    1.003183    1.036161
     27          1           0       -3.269556    0.574743   -1.906212
     28          1           0       -4.702377   -1.241032   -0.576582
     29          1           0       -3.341386   -2.764035    0.535374
     30          1           0       -1.144697   -2.629857    1.176981
     31          1           0       -0.572869   -0.485002   -0.921318
 ---------------------------------------------------------------------

 SCF Done:  E(RB3LYP) =  -995.319974960     A.U. after    1 cycles

 The electronic state is 1-A.
 Alpha  occ. eigenvalues --  -88.87659 -14.35248 -10.22960 -10.22519 -10.21361
 Alpha  occ. eigenvalues --  -10.20237 -10.19661 -10.19090 -10.18911 -10.18848
 Alpha  occ. eigenvalues --  -10.18635 -10.18463 -10.18403 -10.18290 -10.18041
 Alpha  occ. eigenvalues --  -10.17903  -7.93728  -5.90233  -5.89838  -5.89332
 Alpha  occ. eigenvalues --   -0.97306  -0.83455  -0.82167  -0.79175  -0.76921
 Alpha  occ. eigenvalues --   -0.75220  -0.72018  -0.70043  -0.68282  -0.65642
 Alpha  occ. eigenvalues --   -0.62753  -0.59607  -0.56383  -0.53408  -0.51865
 Alpha  occ. eigenvalues --   -0.50481  -0.49287  -0.46814  -0.46591  -0.45038
 Alpha  occ. eigenvalues --   -0.43834  -0.42907  -0.41379  -0.40720  -0.40423
 Alpha  occ. eigenvalues --   -0.39608  -0.38936  -0.38047  -0.36758  -0.36685
 Alpha  occ. eigenvalues --   -0.35770  -0.34584  -0.34298  -0.31577  -0.30968
 Alpha  occ. eigenvalues --   -0.29649  -0.26440  -0.24258  -0.22927  -0.20292
 Alpha  occ. eigenvalues --   -0.18825
 Alpha virt. eigenvalues --   -0.06070  -0.03696   0.00042   0.03635   0.05070
 Alpha virt. eigenvalues --    0.07158   0.09389   0.10156   0.10496   0.11410
 Alpha virt. eigenvalues --    0.11491   0.12257   0.13667   0.15086   0.16014

 Mulliken charges:
               1
     1  C   -0.490377
     2  C    0.244049
     3  C    0.097180
     4  C   -0.461470
     5  S   -0.230860
     6  C   -0.003282
     7  C   -0.054984
     8  N   -0.366344
     9  C    0.287066
    10  C   -0.232971
    11  C   -0.081250
    12  C   -0.129885
    13  C   -0.128466
    14  C   -0.046444
    15  C   -0.108935
    16  C   -0.143748
    17  H    0.135510
    18  H    0.117761
    19  H    0.130336
    20  H    0.124628
    21  H    0.131144
    22  H    0.141772
    23  H    0.135874
    24  H    0.240479
    25  H    0.113568
    26  H    0.109053
    27  H    0.098251
    28  H    0.092070
    29  H    0.087404
    30  H    0.081043
    31  H    0.111827
 Sum of Mulliken charges =  -0.00000

 Dipole moment (field-independent basis, Debye):
    X=              0.0861    Y=             -0.3493    Z=              1.8716  Tot=              1.9059
 Quadrupole moment (field-independent basis, Debye-Ang):
   XX=            -98.6534   YY=            -95.8153   ZZ=            -98.4521
   XY=             -1.9355   XZ=              4.9269   YZ=              3.2678

  Exact polarizability: 262.417  21.466 179.895   9.301  -2.192 138.326
 Approx polarizability: 489.140  68.894 301.810  27.923   0.768 272.133

                      1                      2                      3
                      A                      A                      A
 Frequencies --     53.8098                77.3531                97.3527
 Red. masses --      4.2433                 3.8307                 3.4448
 Frc consts  --      0.0072                 0.0135                 0.0192
 IR Inten    --      0.3441                 0.0796                 0.3162

                      4                      5                      6
                      A                      A                      A
 Frequencies --    114.5972               135.1058               142.1205
 Red. masses --      2.8319                 1.4244                 2.6809
 Frc consts  --      0.0219                 0.0153                 0.0319
 IR Inten    --      1.2235                 0.5002                 0.4188

                      7                      8                      9
                      A                      A                      A
 Frequencies --    168.0179               172.3870               196.3784
 Red. masses --      2.9910                 1.9398                 2.0372
 Frc consts  --      0.0497                 0.0340                 0.0463
 IR Inten    --      0.8994                 0.1796                 1.3041

                     10                     11                     12
                      A                      A                      A
 Frequencies --    227.6877               243.2998               263.7766
 Red. masses --      2.6455                 2.8476                 3.6209
 Frc consts  --      0.0808                 0.0993                 0.1484
 IR Inten    --      1.2318                 2.1467                 3.6904

                     13                     14                     15
                      A                      A                      A
 Frequencies --    291.1902               304.7118               328.6540
 Red. masses --      3.5735                 3.5613                 2.7415
 Frc consts  --      0.1785                 0.1948                 0.1745
 IR Inten    --      6.9946                 0.7524                 7.8735

                     16                     17                     18
                      A                      A                      A
 Frequencies --    381.2844               393.4979               414.4452
 Red. masses --      3.4691                 3.5383                 2.9180
 Frc consts  --      0.2971                 0.3228                 0.2953
 IR Inten    --      4.3793                 8.1686                 4.5309

                     19                     20                     21
                      A                      A                      A
 Frequencies --    429.6530               441.1621               466.8967
 Red. masses --      3.8251                 3.9498                 4.1960
 Frc consts  --      0.4160                 0.4529                 0.5389
 IR Inten    --     14.8164                 2.5945                10.6099

                     22                     23                     24
                      A                      A                      A
 Frequencies --    512.3420               535.1435               567.4207
 Red. masses --      5.3588                 4.2253                 4.4138
 Frc consts  --      0.8288                 0.7129                 0.8373
 IR Inten    --      2.8949                 2.3237                 8.0161

                     25                     26                     27
                      A                      A                      A
 Frequencies --    597.3783               652.9702               692.2234
 Red. masses --      3.4220                 3.5016                 3.0695
 Frc consts  --      0.7195                 0.8796                 0.8666
 IR Inten    --      3.9571                 3.1180                 5.6464

                     28                     29                     30
                      A                      A                      A
 Frequencies --    742.8153               751.1794               779.6912
 Red. masses --      1.7222                 1.7430                 2.1197
 Frc consts  --      0.5599                 0.5795                 0.7592
 IR Inten    --     16.0107                22.3161                21.0193

                     31                     32                     33
                      A                      A                      A
 Frequencies --    806.1204               819.2752               841.5289
 Red. masses --      2.3660                 2.6803                 2.4135
 Frc consts  --      0.9059                 1.0600                 1.0070
 IR Inten    --    170.2274                48.1442                 9.7992

                     34                     35                     36
                      A                      A                      A
 Frequencies --    876.7452               897.1944               920.5296
 Red. masses --      2.5846                 1.9054                 1.5519
 Frc consts  --      1.1705                 0.9037                 0.7748
 IR Inten    --      0.4609                 0.3655                22.9231

                     37                     38                     39
                      A                      A                      A
 Frequencies --    944.1195               966.1091               988.6139
 Red. masses --      3.2512                 3.9011                 1.4203
 Frc consts  --      1.7075                 2.1453                 0.8179
 IR Inten    --      8.9609                 1.3980                31.4567

                     40                     41                     42
                      A                      A                      A
 Frequencies --   1002.0909              1011.4647              1025.7146
 Red. masses --      1.6006                 1.2442                 1.1850
 Frc consts  --      0.9470                 0.7500                 0.7346
 IR Inten    --      2.0959                39.6060                19.0316

                     43                     44                     45
                      A                      A                      A
 Frequencies --   1034.0204              1055.6114              1058.3940
 Red. masses --      1.4208                 1.6534                 1.5940
 Frc consts  --      0.8950                 1.0855                 1.0520
 IR Inten    --      4.2654                 2.7063                 2.4554

                     46                     47                     48
                      A                      A                      A
 Frequencies --   1067.9342              1092.4292              1101.4244
 Red. masses --      1.9018                 1.9755                 2.2613
 Frc consts  --      1.2779                 1.3890                 1.6163
 IR Inten    --     12.8444                14.5513                 3.9860

                     49                     50                     51
                      A                      A                      A
 Frequencies --   1128.5418              1189.8876              1230.2578
 Red. masses --      5.8637                 2.6586                 1.4197
 Frc consts  --      4.4000                 2.2177                 1.2660
 IR Inten    --     12.4241                 0.9530                 2.1310

                     52                     53                     54
                      A                      A                      A
 Frequencies --   1241.1907              1271.1443              1277.2628
 Red. masses --      1.3466                 2.9492                 1.4839
 Frc consts  --      1.2222                 2.8077                 1.4263
 IR Inten    --      2.8424                 1.9771                 2.8246

                     55                     56                     57
                      A                      A                      A
 Frequencies --   1305.6217              1311.6744              1322.5160
 Red. masses --      1.5593                 1.4260                 1.3358
 Frc consts  --      1.5661                 1.4455                 1.3766
 IR Inten    --     18.7481                10.9265                 2.0515

                     58                     59                     60
                      A                      A                      A
 Frequencies --   1362.6434              1373.5083              1401.9601
 Red. masses --      1.2924                 1.6204                 1.2530
 Frc consts  --      1.4138                 1.8010                 1.4510
 IR Inten    --      0.4157                 5.0404                 0.6202

                     61                     62                     63
                      A                      A                      A
 Frequencies --   1414.8008              1442.1090              1470.4858
 Red. masses --      1.2006                 1.5022                 1.0914
 Frc consts  --      1.4159                 1.8407                 1.3905
 IR Inten    --      2.2112                 3.9824                 4.9291

                     64                     65                     66
                      A                      A                      A
 Frequencies --   1478.7445              1488.0941              1509.8007
 Red. masses --      1.0511                 1.0512                 1.0869
 Frc consts  --      1.3542                 1.3715                 1.4598
 IR Inten    --     10.9090                 5.8437                 3.3527

                     67                     68                     69
                      A                      A                      A
 Frequencies --   1526.6432              1597.9675              1609.4123
 Red. masses --      5.4940                 5.2667                 5.7097
 Frc consts  --      7.5442                 7.9237                 8.7137
 IR Inten    --      5.0225                13.6302                 3.0690

                     70                     71                     72
                      A                      A                      A
 Frequencies --   1641.7245              1647.4610              1707.1068
 Red. masses --      5.3769                 4.3656                 8.8645
 Frc consts  --      8.5385                 6.9811                15.2203
 IR Inten    --      2.7192                 1.5556                 4.7221

                     73                     74                     75
                      A                      A                      A
 Frequencies --   3018.8643              3032.7869              3079.1050
 Red. masses --      1.0447                 1.0433                 1.0913
 Frc consts  --      5.6094                 5.6537                 6.0959
 IR Inten    --     28.1413                21.3760                 9.0957

                     76                     77                     78
                      A                      A                      A
 Frequencies --   3080.2677              3103.3972              3109.1928
 Red. masses --      1.0985                 1.0844                 1.0825
 Frc consts  --      6.1406                 6.1534                 6.1657
 IR Inten    --     15.6729                11.3610                 9.6161

                     79                     80                     81
                      A                      A                      A
 Frequencies --   3120.8418              3131.7081              3154.8170
 Red. masses --      1.0995                 1.0908                 1.0878
 Frc consts  --      6.3093                 6.3032                 6.3787
 IR Inten    --     16.7391                65.0530                 2.2303

                     82                     83                     84
                      A                      A                      A
 Frequencies --   3156.1531              3163.5294              3170.2120
 Red. masses --      1.0861                 1.0924                 1.0879
 Frc consts  --      6.3744                 6.4412                 6.4418
 IR Inten    --     25.9336                17.2478                 6.4621

                     85                     86                     87
                      A                      A                      A
 Frequencies --   3224.6614              3236.7126              3475.6197
 Red. masses --      1.0867                 1.0995                 1.0753
 Frc consts  --      6.6579                 6.7866                 7.6534
 IR Inten    --      4.8292                 0.2040                 1.7017

 - Thermochemistry -
 -------------------
 Temperature   298.150 Kelvin.  Pressure   1.00000 Atm.
 Atom     1 has atomic number  6 and mass  12.00000

 Molecular mass:   229.09252 amu.
 Principal axes and moments of inertia in atomic units:
                           1         2         3
     Eigenvalues --  2787.082724202.713385826.05537
           X            0.99940  -0.03286   0.01138
           Y            0.03299   0.99939  -0.01119
           Z           -0.01101   0.01156   0.99987
 This molecule is an asymmetric top.
 Rotational symmetry number  1.
 Warning -- assumption of classical behavior for rotation
           may cause significant error
 Rotational temperatures (Kelvin)      0.03108     0.02061     0.01487
 Rotational constants (GHZ):           0.64754     0.42942     0.30977
 Zero-point vibrational energy     657301.9 (Joules/Mol)
                                  157.09892 (Kcal/Mol)
 Warning -- explicit consideration of  25 degrees of freedom as
           vibrations may cause significant error
 Vibrational temperatures:     77.42   111.29   140.07   164.88   194.39
          (Kelvin)            204.48   241.74   248.03   282.54   327.59
                              350.05   379.52   418.96   438.41   472.86
                              548.58   566.16   596.29   618.17   634.73
                              671.76   737.15   769.95   816.39   859.49
                              939.48   995.96  1068.75  1080.78  1121.80
                             1159.83  1178.75  1210.77  1261.44  1290.86
                             1324.44  1358.38  1390.02  1422.39  1441.79
                             1455.27  1475.77  1487.72  1518.79  1522.79
                             1536.52  1571.76  1584.70  1623.72  1711.98
                             1770.07  1785.80  1828.89  1837.70  1878.50
                             1887.21  1902.81  1960.54  1976.17  2017.11
                             2035.58  2074.87  2115.70  2127.58  2141.04
                             2172.27  2196.50  2299.12  2315.59  2362.08
                             2370.33  2456.15  4343.47  4363.50  4430.15
                             4431.82  4465.10  4473.43  4490.20  4505.83
                             4539.08  4541.00  4551.61  4561.23  4639.57
                             4656.91  5000.64

 Zero-point correction=                           0.250353 (Hartree/Particle)
 Thermal correction to Energy=                    0.266067
 Thermal correction to Enthalpy=                  0.267011
 Thermal correction to Gibbs Free Energy=         0.208252
 Sum of electronic and zero-point Energies=           -995.069622
 Sum of electronic and thermal Energies=              -995.053908
 Sum of electronic and thermal Enthalpies=            -995.052964
 Sum of electronic and thermal Free Energies=         -995.111723

                     E (Thermal)             CV                S
                      KCal/Mol        Cal/Mol-Kelvin    Cal/Mol-Kelvin
 Total                  166.959             60.792            123.669
 Electronic               0.000              0.000              0.000
 Translational            0.889              2.981             42.189
 Rotational               0.889              2.981             32.590
 Vibrational            165.182             54.830             48.890
 Vibration     1          0.596              1.976              4.672
 Vibration     2          0.599              1.964              3.957
 Vibration     3          0.603              1.951              3.507
 Vibration     4          0.608              1.937              3.190
 Vibration     5          0.613              1.918              2.872
 Vibration     6          0.616              1.911              2.775
 Vibration     7          0.625              1.882              2.458
 Vibration     8          0.626              1.876              2.409
 Vibration     9          0.636              1.845              2.167
 Vibration    10          0.651              1.799              1.897
 Vibration    11          0.659              1.774              1.779
 Vibration    12          0.670              1.739              1.637
 Vibration    13          0.687              1.690              1.467
 Vibration    14          0.696              1.665              1.391
 Vibration    15          0.712              1.618              1.267
 Vibration    16          0.751              1.510              1.034
 Vibration    17          0.761              1.484              0.987
 Vibration    18          0.778              1.439              0.911
 Vibration    19          0.791              1.406              0.860
 Vibration    20          0.801              1.380              0.823
 Vibration    21          0.824              1.323              0.746
 Vibration    22          0.867              1.223              0.628
 Vibration    23          0.890              1.172              0.576
 Vibration    24          0.923              1.102              0.509
 Vibration    25          0.955              1.037              0.454

                           ! Non-Optimized Parameters !
 Normal termination of Gaussian 16 at Sat May 20 03:06:01 2023.
