 Gaussian 16, Revision A.03,
 Gaussian 16:  ES64L-G16RevA.03 25-Dec-2016

 -----------------------------
 # opt freq b3lyp/6-31g(2df,p)
 -----------------------------

 -------------------
 Title Card Required
 -------------------
 Symbolic Z-matrix:
 Charge =  0 Multiplicity = 1

 SCF Done:  E(RB3LYP) =  -767.484122147     A.U. after   28 cycles
 SCF Done:  E(RB3LYP) =  -767.580336892     A.U. after   21 cycles
 SCF Done:  E(RB3LYP) =  -767.731220236     A.U. after   20 cycles
 SCF Done:  E(RB3LYP) =  -767.817019186     A.U. after   19 cycles
 SCF Done:  E(RB3LYP) =  -767.919603631     A.U. after   19 cycles
 SCF Done:  E(RB3LYP) =  -767.982842758     A.U. after   22 cycles
 SCF Done:  E(RB3LYP) =  -768.061935207     A.U. after   26 cycles
 SCF Done:  E(RB3LYP) =  -768.085473034     A.U. after   19 cycles
 SCF Done:  E(RB3LYP) =  -768.134341423     A.U. after   16 cycles
 SCF Done:  E(RB3LYP) =  -768.151304460     A.U. after   15 cycles
 SCF Done:  E(RB3LYP) =  -768.416396354     A.U. after    9 cycles
 SCF Done:  E(RB3LYP) =  -768.416402085     A.U. after    8 cycles
 SCF Done:  E(RB3LYP) =  -768.416405825     A.U. after    8 cycles
 SCF Done:  E(RB3LYP) =  -768.416407316     A.U. after    8 cycles
 SCF Done:  E(RB3LYP) =  -768.416407909     A.U. after    8 cycles
 SCF Done:  E(RB3LYP) =  -768.416408231     A.U. after    7 cycles
 SCF Done:  E(RB3LYP) =  -768.416408502     A.U. after    8 cycles
 SCF Done:  E(RB3LYP) =  -768.416408634     A.U. after    7 cycles
 SCF Done:  E(RB3LYP) =  -768.416408735     A.U. after    7 cycles
 Optimization completed.
    -- Stationary point found.
 Normal termination of Gaussian 16 at Fri May 19 01:02:19 2023.

 ----------------------------------------------------------------------
 #N Geom=AllCheck Guess=TCheck SCRF=Check GenChk RB3LYP/6-31G(2df,p) Fr
 eq
 ----------------------------------------------------------------------

 Structure from the checkpoint file:  "CC1dCCdCCdCCdC2OCdCCdC2C2dC1C2O.chk"
 -------------------
 Title Card Required
 -------------------
 Charge =  0 Multiplicity = 1

                         Standard orientation:
 ---------------------------------------------------------------------
 Center     Atomic      Atomic             Coordinates (Angstroms)
 Number     Number       Type             X           Y           Z
 ---------------------------------------------------------------------
      1          6           0       -4.564520    0.880655    1.293009
      2          6           0       -2.368711    1.103712    0.013597
      3          6           0       -3.639683    0.347907    0.193633
      4          6           0       -3.016434   -1.012819    0.469097
      5          6           0       -2.409826   -1.706972   -0.511277
      6          6           0       -1.048315   -2.134314   -0.283980
      7          6           0       -0.085431   -2.023942   -1.222550
      8          6           0        1.322815   -1.860658   -0.862279
      9          6           0        1.805796   -0.833115   -0.135701
     10          8           0        3.166949   -0.964845    0.215654
     11          6           0        3.582714   -0.449244    1.390749
     12          6           0        2.883898    0.477317    2.066394
     13          6           0        1.733735    1.038455    1.398829
     14          6           0        1.204107    0.451457    0.296260
     15          6           0        0.202820    1.212474   -0.540989
     16          6           0       -1.184233    1.215471   -0.236356
     17          6           0        0.660658    1.921049   -1.597133
     18          8           0        1.940363    2.000134   -2.011550
     19          1           0       -5.455284    0.251100    1.379068
     20          1           0       -4.881994    1.903687    1.073457
     21          1           0       -4.052720    0.887364    2.260322
     22          1           0       -4.178976    0.335010   -0.762450
     23          1           0       -2.655523   -1.129636    1.490880
     24          1           0       -2.706678   -1.535333   -1.545329
     25          1           0       -0.738938   -2.231969    0.754967
     26          1           0       -0.365692   -1.968805   -2.274990
     27          1           0        2.053436   -2.601777   -1.183206
     28          1           0        4.557118   -0.831267    1.671885
     29          1           0        3.258783    0.877902    2.998075
     30          1           0        1.336941    1.990036    1.738183
     31          1           0       -0.003755    2.504273   -2.224302
     32          1           0        2.498443    1.502502   -1.397197
 ---------------------------------------------------------------------

 SCF Done:  E(RB3LYP) =  -768.416408735     A.U. after    1 cycles

 The electronic state is 1-A.
 Alpha  occ. eigenvalues --  -19.19738 -19.17797 -10.25674 -10.25121 -10.24439
 Alpha  occ. eigenvalues --  -10.21720 -10.21013 -10.20511 -10.20097 -10.19092
 Alpha  occ. eigenvalues --  -10.18625 -10.18490 -10.18154 -10.18058 -10.17805
 Alpha  occ. eigenvalues --  -10.17732 -10.17032 -10.16574  -1.09280  -1.06685
 Alpha  occ. eigenvalues --   -0.84357  -0.83097  -0.81398  -0.79432  -0.76956
 Alpha  occ. eigenvalues --   -0.73692  -0.70952  -0.69167  -0.65205  -0.64265
 Alpha  occ. eigenvalues --   -0.61730  -0.60321  -0.56436  -0.55380  -0.53074
 Alpha  occ. eigenvalues --   -0.52664  -0.50782  -0.49720  -0.47477  -0.46724
 Alpha  occ. eigenvalues --   -0.45140  -0.44620  -0.44175  -0.42963  -0.42018
 Alpha  occ. eigenvalues --   -0.40839  -0.39750  -0.39654  -0.38671  -0.37661
 Alpha  occ. eigenvalues --   -0.37421  -0.36330  -0.35804  -0.34997  -0.34177
 Alpha  occ. eigenvalues --   -0.31171  -0.30980  -0.29128  -0.28537  -0.24982
 Alpha  occ. eigenvalues --   -0.22530  -0.19294  -0.18644
 Alpha virt. eigenvalues --   -0.04587  -0.02971   0.00005   0.01110   0.04984
 Alpha virt. eigenvalues --    0.06754   0.08698   0.09583   0.09940   0.10373
 Alpha virt. eigenvalues --    0.10864   0.12711   0.13633   0.14612   0.15030

 Mulliken charges:
               1
     1  C   -0.395034
     2  C   -0.172180
     3  C   -0.148148
     4  C   -0.064001
     5  C   -0.086477
     6  C   -0.052924
     7  C   -0.148651
     8  C   -0.230265
     9  C    0.279243
    10  O   -0.241692
    11  C    0.067508
    12  C   -0.208556
    13  C   -0.114265
    14  C   -0.024164
    15  C   -0.091075
    16  C    0.242870
    17  C    0.046111
    18  O   -0.376060
    19  H    0.116557
    20  H    0.122126
    21  H    0.123129
    22  H    0.105443
    23  H    0.092200
    24  H    0.085669
    25  H    0.089500
    26  H    0.092647
    27  H    0.097823
    28  H    0.134624
    29  H    0.110046
    30  H    0.115777
    31  H    0.129605
    32  H    0.302614
 Sum of Mulliken charges =  -0.00000

 Dipole moment (field-independent basis, Debye):
    X=              0.8802    Y=              0.3100    Z=              1.4122  Tot=              1.6927
 Quadrupole moment (field-independent basis, Debye-Ang):
   XX=            -93.0229   YY=           -107.6365   ZZ=            -99.6458
   XY=             -1.3972   XZ=              6.6546   YZ=              2.1311

  Exact polarizability: 250.864  -1.183 151.564  -1.269  13.608 156.515
 Approx polarizability: 405.540   1.732 255.101 -35.843  38.651 286.875

                      1                      2                      3
                      A                      A                      A
 Frequencies --     32.0543                49.8884                66.9041
 Red. masses --      6.0503                 4.8081                 4.5539
 Frc consts  --      0.0037                 0.0071                 0.0120
 IR Inten    --      0.1615                 1.3629                 0.8754

                      4                      5                      6
                      A                      A                      A
 Frequencies --    112.3320               125.0384               139.8795
 Red. masses --      5.1965                 3.4754                 4.1854
 Frc consts  --      0.0386                 0.0320                 0.0482
 IR Inten    --      0.2339                 1.2561                 0.4332

                      7                      8                      9
                      A                      A                      A
 Frequencies --    167.5597               190.6610               216.2725
 Red. masses --      3.7571                 3.8784                 1.9058
 Frc consts  --      0.0622                 0.0831                 0.0525
 IR Inten    --      0.5436                 0.8364                 3.1501

                     10                     11                     12
                      A                      A                      A
 Frequencies --    220.8812               248.5378               258.6979
 Red. masses --      2.0020                 2.4719                 2.3264
 Frc consts  --      0.0575                 0.0900                 0.0917
 IR Inten    --      1.9665                 6.7043                 2.6280

                     13                     14                     15
                      A                      A                      A
 Frequencies --    272.6979               297.8241               317.5978
 Red. masses --      3.0854                 2.6114                 3.9751
 Frc consts  --      0.1352                 0.1365                 0.2362
 IR Inten    --      2.4829                13.7802                 0.7477

                     16                     17                     18
                      A                      A                      A
 Frequencies --    358.8678               394.0562               425.0795
 Red. masses --      3.4957                 4.9378                 4.8816
 Frc consts  --      0.2652                 0.4517                 0.5197
 IR Inten    --      4.7245                 1.3817                 7.1937

                     19                     20                     21
                      A                      A                      A
 Frequencies --    438.1480               475.8063               494.4032
 Red. masses --      4.6999                 4.1759                 3.3300
 Frc consts  --      0.5316                 0.5570                 0.4796
 IR Inten    --      2.6811                13.8640                 6.7605

                     22                     23                     24
                      A                      A                      A
 Frequencies --    510.2105               516.0172               552.2263
 Red. masses --      2.7847                 2.8307                 3.7838
 Frc consts  --      0.4271                 0.4441                 0.6799
 IR Inten    --     17.0867                15.1738                17.7379

                     25                     26                     27
                      A                      A                      A
 Frequencies --    557.3165               575.2246               598.9280
 Red. masses --      4.5114                 3.6684                 4.9023
 Frc consts  --      0.8256                 0.7152                 1.0361
 IR Inten    --     23.9312                 4.6950                 5.2051

                     28                     29                     30
                      A                      A                      A
 Frequencies --    611.3524               647.4852               678.4491
 Red. masses --      4.3464                 4.7345                 4.3659
 Frc consts  --      0.9571                 1.1695                 1.1840
 IR Inten    --     15.1656                18.3067                 2.4226

                     31                     32                     33
                      A                      A                      A
 Frequencies --    730.5577               773.0939               808.0765
 Red. masses --      4.1779                 1.3428                 2.1755
 Frc consts  --      1.3138                 0.4729                 0.8370
 IR Inten    --      6.5115                23.6365                 0.6725

                     34                     35                     36
                      A                      A                      A
 Frequencies --    822.4986               828.5494               855.2418
 Red. masses --      2.4270                 1.7911                 1.9834
 Frc consts  --      0.9674                 0.7245                 0.8548
 IR Inten    --     42.3751                27.0348                63.7483

                     37                     38                     39
                      A                      A                      A
 Frequencies --    887.6220               907.4210               927.3917
 Red. masses --      3.1397                 2.1546                 1.3273
 Frc consts  --      1.4575                 1.0453                 0.6726
 IR Inten    --     27.9067                 1.4469                 0.5819

                     40                     41                     42
                      A                      A                      A
 Frequencies --    928.6516               932.8555               972.9025
 Red. masses --      1.3718                 1.5248                 1.2694
 Frc consts  --      0.6970                 0.7818                 0.7079
 IR Inten    --     11.2876                 7.6572                 4.7107

                     43                     44                     45
                      A                      A                      A
 Frequencies --    983.2610              1034.7517              1044.8803
 Red. masses --      3.9169                 2.3449                 1.2901
 Frc consts  --      2.2312                 1.4793                 0.8299
 IR Inten    --     16.6569                 3.0201                76.7093

                     46                     47                     48
                      A                      A                      A
 Frequencies --   1059.6974              1073.0407              1095.3691
 Red. masses --      2.2970                 2.1126                 1.8171
 Frc consts  --      1.5197                 1.4332                 1.2846
 IR Inten    --     21.0997                 1.0527                28.5590

                     49                     50                     51
                      A                      A                      A
 Frequencies --   1114.1186              1117.7308              1128.6196
 Red. masses --      1.9350                 2.4836                 1.9921
 Frc consts  --      1.4151                 1.8282                 1.4951
 IR Inten    --     63.2989                27.9414                22.2587

                     52                     53                     54
                      A                      A                      A
 Frequencies --   1178.6786              1188.0847              1220.4488
 Red. masses --      2.8449                 2.3634                 1.3616
 Frc consts  --      2.3286                 1.9655                 1.1949
 IR Inten    --      0.6831               210.0555                 2.3927

                     55                     56                     57
                      A                      A                      A
 Frequencies --   1249.6222              1265.8496              1270.9432
 Red. masses --      2.7316                 1.4578                 1.5600
 Frc consts  --      2.5132                 1.3763                 1.4847
 IR Inten    --     18.0490                33.2928                45.8116

                     58                     59                     60
                      A                      A                      A
 Frequencies --   1299.2646              1317.5063              1321.7811
 Red. masses --      1.4195                 1.4347                 1.4071
 Frc consts  --      1.4118                 1.4672                 1.4484
 IR Inten    --     25.3252                11.6254                18.2896

                     61                     62                     63
                      A                      A                      A
 Frequencies --   1337.7634              1343.2610              1359.9142
 Red. masses --      1.3013                 2.1965                 1.4329
 Frc consts  --      1.3721                 2.3351                 1.5613
 IR Inten    --      1.7525                12.6762                12.0547

                     64                     65                     66
                      A                      A                      A
 Frequencies --   1379.9802              1384.2829              1409.6372
 Red. masses --      2.1778                 1.3291                 1.2357
 Frc consts  --      2.4435                 1.5005                 1.4468
 IR Inten    --      4.4709                 3.7072                 2.0787

                     67                     68                     69
                      A                      A                      A
 Frequencies --   1425.9657              1492.9485              1498.0546
 Red. masses --      1.7042                 1.0439                 1.0466
 Frc consts  --      2.0417                 1.3708                 1.3838
 IR Inten    --     10.5933                 4.2839                 2.3539

                     70                     71                     72
                      A                      A                      A
 Frequencies --   1585.6822              1631.7702              1652.5010
 Red. masses --      8.0251                 5.8048                 5.1815
 Frc consts  --     11.8886                 9.1066                 8.3367
 IR Inten    --     40.1597                15.8104                16.4818

                     73                     74                     75
                      A                      A                      A
 Frequencies --   1654.7942              1659.2367              1678.4680
 Red. masses --      6.2890                 6.4757                 6.4215
 Frc consts  --     10.1466                10.5040                10.6589
 IR Inten    --    148.4116                65.6516                64.6713

                     76                     77                     78
                      A                      A                      A
 Frequencies --   2262.5278              3021.4724              3039.3454
 Red. masses --     11.9383                 1.0821                 1.0345
 Frc consts  --     36.0065                 5.8204                 5.6306
 IR Inten    --     24.2640                16.3756                35.4734

                     79                     80                     81
                      A                      A                      A
 Frequencies --   3111.8214              3112.2917              3117.2644
 Red. masses --      1.0864                 1.1015                 1.1022
 Frc consts  --      6.1983                 6.2865                 6.3102
 IR Inten    --     18.1744                36.4928                19.9414

                     82                     83                     84
                      A                      A                      A
 Frequencies --   3125.4343              3128.8847              3131.1262
 Red. masses --      1.0886                 1.0862                 1.0868
 Frc consts  --      6.2651                 6.2653                 6.2780
 IR Inten    --      9.2607                18.7817                15.2607

                     85                     86                     87
                      A                      A                      A
 Frequencies --   3147.1819              3181.8218              3205.3256
 Red. masses --      1.0874                 1.0899                 1.0887
 Frc consts  --      6.3457                 6.5010                 6.5903
 IR Inten    --     23.1179                 5.2486                 4.2753

                     88                     89                     90
                      A                      A                      A
 Frequencies --   3208.4792              3232.8678              3744.2248
 Red. masses --      1.0920                 1.0984                 1.0643
 Frc consts  --      6.6231                 6.7639                 8.7908
 IR Inten    --      5.7206                11.3941                53.2346

 - Thermochemistry -
 -------------------
 Temperature   298.150 Kelvin.  Pressure   1.00000 Atm.
 Atom     1 has atomic number  6 and mass  12.00000

 Molecular mass:   238.09938 amu.
 Principal axes and moments of inertia in atomic units:
                           1         2         3
     Eigenvalues --  2640.837846147.847976677.23642
           X            0.99997  -0.00580  -0.00434
           Y            0.00602   0.99864   0.05184
           Z            0.00404  -0.05186   0.99865
 This molecule is an asymmetric top.
 Rotational symmetry number  1.
 Warning -- assumption of classical behavior for rotation
           may cause significant error
 Rotational temperatures (Kelvin)      0.03280     0.01409     0.01297
 Rotational constants (GHZ):           0.68340     0.29356     0.27028
 Zero-point vibrational energy     664844.0 (Joules/Mol)
                                  158.90153 (Kcal/Mol)
 Warning -- explicit consideration of  28 degrees of freedom as
           vibrations may cause significant error
 Vibrational temperatures:     46.12    71.78    96.26   161.62   179.90
          (Kelvin)            201.26   241.08   274.32   311.17   317.80
                              357.59   372.21   392.35   428.50   456.95
                              516.33   566.96   611.59   630.40   684.58
                              711.34   734.08   742.43   794.53   801.85
                              827.62   861.72   879.60   931.59   976.14
                             1051.11  1112.31  1162.64  1183.39  1192.10
                             1230.50  1277.09  1305.58  1334.31  1336.12
                             1342.17  1399.79  1414.69  1488.78  1503.35
                             1524.67  1543.87  1575.99  1602.97  1608.17
                             1623.83  1695.86  1709.39  1755.95  1797.93
                             1821.28  1828.60  1869.35  1895.60  1901.75
                             1924.74  1932.65  1956.61  1985.48  1991.67
                             2028.15  2051.65  2148.02  2155.37  2281.44
                             2347.75  2377.58  2380.88  2387.27  2414.94
                             3255.27  4347.22  4372.94  4477.22  4477.89
                             4485.05  4496.80  4501.77  4504.99  4528.09
                             4577.93  4611.75  4616.29  4651.38  5387.10

 Zero-point correction=                           0.253226 (Hartree/Particle)
 Thermal correction to Energy=                    0.269591
 Thermal correction to Enthalpy=                  0.270535
 Thermal correction to Gibbs Free Energy=         0.209575
 Sum of electronic and zero-point Energies=           -768.163183
 Sum of electronic and thermal Energies=              -768.146818
 Sum of electronic and thermal Enthalpies=            -768.145874
 Sum of electronic and thermal Free Energies=         -768.206834

                     E (Thermal)             CV                S
                      KCal/Mol        Cal/Mol-Kelvin    Cal/Mol-Kelvin
 Total                  169.171             63.862            128.301
 Electronic               0.000              0.000              0.000
 Translational            0.889              2.981             42.304
 Rotational               0.889              2.981             33.049
 Vibrational            167.393             57.900             52.948
 Vibration     1          0.594              1.983              5.698
 Vibration     2          0.595              1.978              4.822
 Vibration     3          0.598              1.970              4.242
 Vibration     4          0.607              1.939              3.228
 Vibration     5          0.610              1.928              3.021
 Vibration     6          0.615              1.913              2.806
 Vibration     7          0.624              1.882              2.463
 Vibration     8          0.634              1.853              2.221
 Vibration     9          0.645              1.816              1.990
 Vibration    10          0.648              1.809              1.952
 Vibration    11          0.662              1.765              1.741
 Vibration    12          0.668              1.748              1.671
 Vibration    13          0.676              1.724              1.579
 Vibration    14          0.691              1.678              1.429
 Vibration    15          0.704              1.640              1.322
 Vibration    16          0.734              1.557              1.127
 Vibration    17          0.761              1.483              0.985
 Vibration    18          0.787              1.416              0.875
 Vibration    19          0.798              1.387              0.832
 Vibration    20          0.832              1.304              0.721
 Vibration    21          0.850              1.262              0.672
 Vibration    22          0.865              1.227              0.633
 Vibration    23          0.871              1.215              0.619
 Vibration    24          0.908              1.135              0.540
 Vibration    25          0.913              1.124              0.529
 Vibration    26          0.932              1.085              0.494
 Vibration    27          0.957              1.034              0.452
 Vibration    28          0.970              1.008              0.431

                           ! Non-Optimized Parameters !
 Normal termination of Gaussian 16 at Fri May 19 05:03:40 2023.
