 Gaussian 16, Revision A.03,
 Gaussian 16:  ES64L-G16RevA.03 25-Dec-2016

 -----------------------------
 # opt freq b3lyp/6-31g(2df,p)
 -----------------------------

 -------------------
 Title Card Required
 -------------------
 Symbolic Z-matrix:
 Charge =  0 Multiplicity = 1

 SCF Done:  E(RB3LYP) =  -726.663154732     A.U. after   16 cycles
 SCF Done:  E(RB3LYP) =  -726.710513293     A.U. after   14 cycles
 SCF Done:  E(RB3LYP) =  -726.689705516     A.U. after   14 cycles
 SCF Done:  E(RB3LYP) =  -726.742197077     A.U. after   14 cycles
 SCF Done:  E(RB3LYP) =  -726.748913865     A.U. after   13 cycles
 SCF Done:  E(RB3LYP) =  -726.752149264     A.U. after   14 cycles
 SCF Done:  E(RB3LYP) =  -726.758263137     A.U. after   14 cycles
 SCF Done:  E(RB3LYP) =  -726.768580932     A.U. after   15 cycles
 SCF Done:  E(RB3LYP) =  -726.772585748     A.U. after   13 cycles
 SCF Done:  E(RB3LYP) =  -726.773740315     A.U. after   13 cycles
 SCF Done:  E(RB3LYP) =  -726.776267832     A.U. after   12 cycles
 SCF Done:  E(RB3LYP) =  -726.776310677     A.U. after   11 cycles
 SCF Done:  E(RB3LYP) =  -726.776335652     A.U. after   11 cycles
 SCF Done:  E(RB3LYP) =  -726.776351578     A.U. after   10 cycles
 SCF Done:  E(RB3LYP) =  -726.776354615     A.U. after    9 cycles
 SCF Done:  E(RB3LYP) =  -726.776355126     A.U. after    8 cycles
 SCF Done:  E(RB3LYP) =  -726.776355278     A.U. after    7 cycles
 SCF Done:  E(RB3LYP) =  -726.776355338     A.U. after    7 cycles
 SCF Done:  E(RB3LYP) =  -726.776355350     A.U. after    6 cycles
 Optimization completed.
    -- Stationary point found.
 Normal termination of Gaussian 16 at Sat May 20 10:28:02 2023.

 ----------------------------------------------------------------------
 #N Geom=AllCheck Guess=TCheck SCRF=Check GenChk RB3LYP/6-31G(2df,p) Fr
 eq
 ----------------------------------------------------------------------

 Structure from the checkpoint file:  "CC[C]NC1dCCdCCdCN1CqdOrCOC.chk"
 -------------------
 Title Card Required
 -------------------
 Charge =  0 Multiplicity = 1

                         Standard orientation:
 ---------------------------------------------------------------------
 Center     Atomic      Atomic             Coordinates (Angstroms)
 Number     Number       Type             X           Y           Z
 ---------------------------------------------------------------------
      1          6           0       -5.027647   -0.452680    0.420047
      2          6           0       -3.649023   -1.116537    0.261698
      3          6           0       -2.684807   -0.222107   -0.462183
      4          7           0       -1.560018   -0.084552    0.199803
      5          6           0       -0.435826    0.695028   -0.217074
      6          6           0       -0.452461    1.477569   -1.312233
      7          6           0        0.580607    2.419169   -1.655063
      8          6           0        1.395578    3.061217   -0.778048
      9          6           0        1.395492    2.901386    0.657871
     10          6           0        1.034975    1.795671    1.327838
     11          7           0        0.688711    0.594734    0.638172
     12          6           0        1.560348   -0.489565    0.710157
     13          8           0        2.509470   -0.477776    1.456658
     14          6           0        1.218727   -1.658844   -0.215289
     15          8           0        2.219290   -2.624064   -0.103684
     16          6           0        1.996286   -3.732628   -0.943678
     17          1           0       -5.739450   -1.144608    0.879640
     18          1           0       -5.416087   -0.141507   -0.552821
     19          1           0       -4.964392    0.436847    1.054423
     20          1           0       -3.768565   -2.010355   -0.367868
     21          1           0       -3.281510   -1.468857    1.247513
     22          1           0       -1.390476   -0.535878    1.110138
     23          1           0       -1.347096    1.424262   -1.925414
     24          1           0        0.618951    2.728590   -2.696259
     25          1           0        2.041508    3.841642   -1.170996
     26          1           0        1.702768    3.760221    1.249351
     27          1           0        1.021553    1.751092    2.411756
     28          1           0        1.124291   -1.278315   -1.247574
     29          1           0        0.229525   -2.071135    0.050592
     30          1           0        2.825697   -4.425660   -0.787491
     31          1           0        1.967296   -3.442938   -2.006033
     32          1           0        1.051580   -4.246040   -0.702834
 ---------------------------------------------------------------------

 SCF Done:  E(RB3LYP) =  -726.776355350     A.U. after    1 cycles

 The electronic state is 1-A.
 Alpha  occ. eigenvalues --  -19.14729 -19.11195 -14.39719 -14.37283 -10.28624
 Alpha  occ. eigenvalues --  -10.26874 -10.24355 -10.23029 -10.22892 -10.20300
 Alpha  occ. eigenvalues --  -10.20119 -10.19962 -10.19651 -10.19601 -10.19060
 Alpha  occ. eigenvalues --  -10.17959  -1.05600  -1.03422  -0.99019  -0.93711
 Alpha  occ. eigenvalues --   -0.82457  -0.79795  -0.76978  -0.75236  -0.71510
 Alpha  occ. eigenvalues --   -0.68613  -0.66456  -0.63667  -0.61608  -0.59266
 Alpha  occ. eigenvalues --   -0.56390  -0.54223  -0.51493  -0.50351  -0.49729
 Alpha  occ. eigenvalues --   -0.48956  -0.47785  -0.46270  -0.45483  -0.44481
 Alpha  occ. eigenvalues --   -0.43500  -0.42657  -0.41900  -0.40784  -0.39596
 Alpha  occ. eigenvalues --   -0.38771  -0.37542  -0.36709  -0.36521  -0.36216
 Alpha  occ. eigenvalues --   -0.34333  -0.33205  -0.32610  -0.28054  -0.27470
 Alpha  occ. eigenvalues --   -0.26027  -0.25608  -0.21856  -0.20525
 Alpha virt. eigenvalues --   -0.06269  -0.01866   0.01540   0.03948   0.06284
 Alpha virt. eigenvalues --    0.08238   0.09428   0.09777   0.11289   0.12799
 Alpha virt. eigenvalues --    0.13184   0.13888   0.14876   0.15665   0.15906

 Mulliken charges:
               1
     1  C   -0.361137
     2  C   -0.229559
     3  C   -0.098589
     4  N   -0.209523
     5  C    0.258096
     6  C   -0.120888
     7  C   -0.111986
     8  C   -0.110248
     9  C   -0.067082
    10  C   -0.082371
    11  N   -0.182692
    12  C    0.362919
    13  O   -0.325081
    14  C   -0.195012
    15  O   -0.210258
    16  C   -0.227909
    17  H    0.113513
    18  H    0.134118
    19  H    0.119065
    20  H    0.123597
    21  H    0.060830
    22  H    0.214555
    23  H    0.132634
    24  H    0.104812
    25  H    0.105611
    26  H    0.109584
    27  H    0.125832
    28  H    0.120545
    29  H    0.100637
    30  H    0.134958
    31  H    0.107010
    32  H    0.104018
 Sum of Mulliken charges =  -0.00000

 Dipole moment (field-independent basis, Debye):
    X=             -2.1139    Y=              0.2693    Z=             -0.8138  Tot=              2.2811
 Quadrupole moment (field-independent basis, Debye-Ang):
   XX=           -105.8389   YY=            -82.9458   ZZ=            -92.8927
   XY=              7.1063   XZ=            -10.6769   YZ=              3.2479

  Exact polarizability: 173.216  29.267 168.107   8.334 -10.070 135.482
 Approx polarizability: 243.298  46.062 239.314  27.936 -25.233 238.530

                      1                      2                      3
                      A                      A                      A
 Frequencies --     27.2024                41.3879                46.7785
 Red. masses --      3.2950                 3.2711                 2.2745
 Frc consts  --      0.0014                 0.0033                 0.0029
 IR Inten    --      1.3591                 0.0428                 2.2059

                      4                      5                      6
                      A                      A                      A
 Frequencies --     59.9995                75.1449                75.4284
 Red. masses --      4.0433                 2.9308                 4.2056
 Frc consts  --      0.0086                 0.0098                 0.0141
 IR Inten    --      5.8188                 1.3735                 7.2785

                      7                      8                      9
                      A                      A                      A
 Frequencies --    101.1028               112.8396               130.5081
 Red. masses --      3.5100                 3.8577                 2.6274
 Frc consts  --      0.0211                 0.0289                 0.0264
 IR Inten    --      1.1316                 0.4259                 3.6830

                     10                     11                     12
                      A                      A                      A
 Frequencies --    198.8151               226.4379               235.9831
 Red. masses --      2.7387                 1.6056                 1.1633
 Frc consts  --      0.0638                 0.0485                 0.0382
 IR Inten    --      2.9131                 0.1294                 2.5720

                     13                     14                     15
                      A                      A                      A
 Frequencies --    253.4838               260.0818               312.5418
 Red. masses --      4.7464                 2.8842                 3.8675
 Frc consts  --      0.1797                 0.1149                 0.2226
 IR Inten    --      0.3802                 3.2221                 4.1468

                     16                     17                     18
                      A                      A                      A
 Frequencies --    317.2692               349.5909               374.5078
 Red. masses --      4.5993                 4.6100                 3.2624
 Frc consts  --      0.2728                 0.3320                 0.2696
 IR Inten    --      3.7568                11.5811                 7.3191

                     19                     20                     21
                      A                      A                      A
 Frequencies --    394.7617               440.7407               477.2968
 Red. masses --      3.6431                 4.4699                 4.8413
 Frc consts  --      0.3345                 0.5116                 0.6498
 IR Inten    --     10.0627                 8.7247                10.7871

                     22                     23                     24
                      A                      A                      A
 Frequencies --    481.3120               574.7464               593.3913
 Red. masses --      4.3546                 3.2675                 3.7013
 Frc consts  --      0.5944                 0.6359                 0.7679
 IR Inten    --      3.0503                 9.9517                 0.3631

                     25                     26                     27
                      A                      A                      A
 Frequencies --    634.1665               677.4856               747.6910
 Red. masses --      3.9225                 3.6256                 2.8465
 Frc consts  --      0.9294                 0.9805                 0.9376
 IR Inten    --      5.3593                13.6208                 6.0601

                     28                     29                     30
                      A                      A                      A
 Frequencies --    758.2997               786.6384               806.0593
 Red. masses --      1.7288                 1.4111                 2.4598
 Frc consts  --      0.5857                 0.5145                 0.9416
 IR Inten    --     68.0854                10.1697                 3.4153

                     31                     32                     33
                      A                      A                      A
 Frequencies --    823.3279               854.9875               897.2525
 Red. masses --      1.8323                 1.2725                 3.4070
 Frc consts  --      0.7318                 0.5481                 1.6160
 IR Inten    --      2.2792                27.0718                 9.0139

                     34                     35                     36
                      A                      A                      A
 Frequencies --    923.0014               937.4102               958.7544
 Red. masses --      2.1020                 1.8752                 1.8301
 Frc consts  --      1.0551                 0.9709                 0.9912
 IR Inten    --      2.1700                 4.7914                14.5150

                     37                     38                     39
                      A                      A                      A
 Frequencies --    964.1467               994.3310               997.5519
 Red. masses --      1.9449                 1.5766                 2.3891
 Frc consts  --      1.0652                 0.9184                 1.4008
 IR Inten    --      7.5303                 8.8351                20.8490

                     40                     41                     42
                      A                      A                      A
 Frequencies --   1008.4176              1025.9041              1042.4880
 Red. masses --      2.4274                 2.0512                 2.8057
 Frc consts  --      1.4544                 1.2720                 1.7965
 IR Inten    --      2.7693                 1.0187                13.5385

                     43                     44                     45
                      A                      A                      A
 Frequencies --   1052.9316              1058.7536              1127.9066
 Red. masses --      2.4626                 1.7939                 2.2975
 Frc consts  --      1.6086                 1.1848                 1.7221
 IR Inten    --     15.1037                 5.7971                11.6767

                     46                     47                     48
                      A                      A                      A
 Frequencies --   1142.0670              1175.7138              1184.0611
 Red. masses --      1.9301                 2.6024                 1.2794
 Frc consts  --      1.4832                 2.1194                 1.0568
 IR Inten    --      1.9625                96.0691                 2.5602

                     49                     50                     51
                      A                      A                      A
 Frequencies --   1207.1753              1232.0173              1250.0434
 Red. masses --      1.5589                 2.3707                 1.2026
 Frc consts  --      1.3385                 2.1201                 1.1072
 IR Inten    --     17.2517               222.1927                 5.6538

                     52                     53                     54
                      A                      A                      A
 Frequencies --   1258.5745              1263.0317              1267.4076
 Red. masses --      1.2466                 2.1628                 1.1781
 Frc consts  --      1.1634                 2.0328                 1.1150
 IR Inten    --      2.0820                54.2320                 3.5113

                     55                     56                     57
                      A                      A                      A
 Frequencies --   1304.5295              1328.6219              1357.7426
 Red. masses --      2.1945                 1.4943                 2.0676
 Frc consts  --      2.2004                 1.5541                 2.2457
 IR Inten    --    148.3597                55.9019                36.9335

                     58                     59                     60
                      A                      A                      A
 Frequencies --   1392.2285              1402.6798              1414.9280
 Red. masses --      1.6753                 1.2340                 1.7798
 Frc consts  --      1.9132                 1.4305                 2.0994
 IR Inten    --     17.8399                 3.0099                 6.5834

                     61                     62                     63
                      A                      A                      A
 Frequencies --   1425.0257              1460.4969              1467.8343
 Red. masses --      1.6693                 1.1320                 1.7851
 Frc consts  --      1.9973                 1.4227                 2.2660
 IR Inten    --     18.2828                 3.8898                 4.2153

                     64                     65                     66
                      A                      A                      A
 Frequencies --   1472.9557              1486.2610              1492.8310
 Red. masses --      1.1102                 1.0467                 1.0901
 Frc consts  --      1.4191                 1.3622                 1.4313
 IR Inten    --      8.7403                 6.1000                 6.5456

                     67                     68                     69
                      A                      A                      A
 Frequencies --   1493.9408              1506.7691              1516.1335
 Red. masses --      1.0449                 1.0642                 1.6316
 Frc consts  --      1.3740                 1.4236                 2.2098
 IR Inten    --      7.5161                 3.3031               143.0040

                     70                     71                     72
                      A                      A                      A
 Frequencies --   1518.5938              1597.1300              1674.5909
 Red. masses --      1.3579                 7.5332                 6.2385
 Frc consts  --      1.8450                11.3217                10.3074
 IR Inten    --     61.3259                 5.1690                 3.0385

                     73                     74                     75
                      A                      A                      A
 Frequencies --   1694.6433              1804.0853              2885.0668
 Red. masses --      5.5816                12.0977                 1.0710
 Frc consts  --      9.4443                23.1989                 5.2525
 IR Inten    --     29.4752               259.1091                86.7078

                     76                     77                     78
                      A                      A                      A
 Frequencies --   2948.4831              2970.0755              2972.2441
 Red. masses --      1.0531                 1.0422                 1.0970
 Frc consts  --      5.3942                 5.4169                 5.7100
 IR Inten    --     48.0378                53.3255                32.1735

                     79                     80                     81
                      A                      A                      A
 Frequencies --   3013.2872              3020.5949              3042.4426
 Red. masses --      1.1031                 1.0848                 1.0348
 Frc consts  --      5.9015                 5.8315                 5.6437
 IR Inten    --     50.8891                 8.0618                37.7749

                     82                     83                     84
                      A                      A                      A
 Frequencies --   3109.4404              3121.8152              3126.1647
 Red. masses --      1.1021                 1.0956                 1.1018
 Frc consts  --      6.2782                 6.2911                 6.3443
 IR Inten    --     27.3984                28.3829                20.2796

                     85                     86                     87
                      A                      A                      A
 Frequencies --   3151.2306              3159.9825              3173.3427
 Red. masses --      1.0827                 1.0853                 1.0908
 Frc consts  --      6.3346                 6.3849                 6.4717
 IR Inten    --      0.5275                 6.8314                20.1668

                     88                     89                     90
                      A                      A                      A
 Frequencies --   3182.0431              3187.8073              3268.5718
 Red. masses --      1.0900                 1.0963                 1.0707
 Frc consts  --      6.5024                 6.5641                 6.7397
 IR Inten    --      4.2858                17.6247                23.6265

 - Thermochemistry -
 -------------------
 Temperature   298.150 Kelvin.  Pressure   1.00000 Atm.
 Atom     1 has atomic number  6 and mass  12.00000

 Molecular mass:   220.12118 amu.
 Principal axes and moments of inertia in atomic units:
                           1         2         3
     Eigenvalues --  3506.070124480.276326684.77727
           X            0.99929   0.03280  -0.01828
           Y           -0.03260   0.99941   0.01120
           Z            0.01864  -0.01060   0.99977
 This molecule is an asymmetric top.
 Rotational symmetry number  1.
 Warning -- assumption of classical behavior for rotation
           may cause significant error
 Rotational temperatures (Kelvin)      0.02470     0.01933     0.01296
 Rotational constants (GHZ):           0.51475     0.40282     0.26998
 Zero-point vibrational energy     690027.3 (Joules/Mol)
                                  164.92049 (Kcal/Mol)
 Warning -- explicit consideration of  24 degrees of freedom as
           vibrations may cause significant error
 Vibrational temperatures:     39.14    59.55    67.30    86.33   108.12
          (Kelvin)            108.52   145.46   162.35   187.77   286.05
                              325.79   339.53   364.71   374.20   449.68
                              456.48   502.98   538.83   567.97   634.13
                              686.72   692.50   826.93   853.76   912.42
                              974.75  1075.76  1091.02  1131.80  1159.74
                             1184.59  1230.14  1290.95  1327.99  1348.72
                             1379.43  1387.19  1430.62  1435.25  1450.89
                             1476.05  1499.91  1514.93  1523.31  1622.81
                             1643.18  1691.59  1703.60  1736.86  1772.60
                             1798.53  1810.81  1817.22  1823.52  1876.93
                             1911.59  1953.49  2003.11  2018.14  2035.77
                             2050.29  2101.33  2111.89  2119.25  2138.40
                             2147.85  2149.45  2167.90  2181.38  2184.92
                             2297.91  2409.36  2438.21  2595.68  4150.97
                             4242.21  4273.28  4276.40  4335.45  4345.96
                             4377.40  4473.79  4491.60  4497.85  4533.92
                             4546.51  4565.73  4578.25  4586.54  4702.75

 Zero-point correction=                           0.262818 (Hartree/Particle)
 Thermal correction to Energy=                    0.279671
 Thermal correction to Enthalpy=                  0.280615
 Thermal correction to Gibbs Free Energy=         0.216214
 Sum of electronic and zero-point Energies=           -726.513538
 Sum of electronic and thermal Energies=              -726.496685
 Sum of electronic and thermal Enthalpies=            -726.495740
 Sum of electronic and thermal Free Energies=         -726.560141

                     E (Thermal)             CV                S
                      KCal/Mol        Cal/Mol-Kelvin    Cal/Mol-Kelvin
 Total                  175.496             60.706            135.543
 Electronic               0.000              0.000              0.000
 Translational            0.889              2.981             42.070
 Rotational               0.889              2.981             33.018
 Vibrational            173.719             54.745             60.455
 Vibration     1          0.593              1.984              6.024
 Vibration     2          0.594              1.981              5.192
 Vibration     3          0.595              1.979              4.949
 Vibration     4          0.597              1.973              4.457
 Vibration     5          0.599              1.966              4.014
 Vibration     6          0.599              1.965              4.006
 Vibration     7          0.604              1.948              3.433
 Vibration     8          0.607              1.939              3.219
 Vibration     9          0.612              1.923              2.939
 Vibration    10          0.637              1.842              2.144
 Vibration    11          0.650              1.801              1.907
 Vibration    12          0.655              1.786              1.833
 Vibration    13          0.665              1.757              1.706
 Vibration    14          0.668              1.746              1.661
 Vibration    15          0.701              1.650              1.349
 Vibration    16          0.704              1.641              1.324
 Vibration    17          0.727              1.576              1.168
 Vibration    18          0.746              1.524              1.061
 Vibration    19          0.762              1.481              0.982
 Vibration    20          0.801              1.381              0.824
 Vibration    21          0.834              1.300              0.717
 Vibration    22          0.838              1.292              0.707
 Vibration    23          0.931              1.086              0.495
 Vibration    24          0.951              1.046              0.461

                           ! Non-Optimized Parameters !
 Normal termination of Gaussian 16 at Sat May 20 13:13:54 2023.
