 Gaussian 16, Revision A.03,
 Gaussian 16:  ES64L-G16RevA.03 25-Dec-2016

 -----------------------------
 # opt freq b3lyp/6-31g(2df,p)
 -----------------------------

 -------------------
 Title Card Required
 -------------------
 Symbolic Z-matrix:
 Charge =  0 Multiplicity = 1

 SCF Done:  E(RB3LYP) =  -727.871170245     A.U. after   27 cycles
 SCF Done:  E(RB3LYP) =  -727.985599575     A.U. after   23 cycles
 SCF Done:  E(RB3LYP) =  -728.162725405     A.U. after   23 cycles
 SCF Done:  E(RB3LYP) =  -728.306380498     A.U. after   27 cycles
 SCF Done:  E(RB3LYP) =  -728.441293144     A.U. after   23 cycles
 SCF Done:  E(RB3LYP) =  -728.523799535     A.U. after   21 cycles
 SCF Done:  E(RB3LYP) =  -728.572025677     A.U. after   17 cycles
 SCF Done:  E(RB3LYP) =  -728.606338512     A.U. after   17 cycles
 SCF Done:  E(RB3LYP) =  -728.621071256     A.U. after   18 cycles
 SCF Done:  E(RB3LYP) =  -728.630829233     A.U. after   16 cycles
 SCF Done:  E(RB3LYP) =  -728.649502402     A.U. after   13 cycles
 SCF Done:  E(RB3LYP) =  -728.649521799     A.U. after   14 cycles
 SCF Done:  E(RB3LYP) =  -728.649651111     A.U. after   14 cycles
 SCF Done:  E(RB3LYP) =  -728.649783056     A.U. after   13 cycles
 SCF Done:  E(RB3LYP) =  -728.649789093     A.U. after   12 cycles
 SCF Done:  E(RB3LYP) =  -728.649792455     A.U. after   11 cycles
 SCF Done:  E(RB3LYP) =  -728.649793347     A.U. after    9 cycles
 SCF Done:  E(RB3LYP) =  -728.649793632     A.U. after    8 cycles
 SCF Done:  E(RB3LYP) =  -728.649793723     A.U. after    7 cycles
 Optimization completed.
    -- Stationary point found.
 Normal termination of Gaussian 16 at Thu May 18 03:25:17 2023.

 ----------------------------------------------------------------------
 #N Geom=AllCheck Guess=TCheck SCRF=Check GenChk RB3LYP/6-31G(2df,p) Fr
 eq
 ----------------------------------------------------------------------

 Structure from the checkpoint file:  "CCC1dCCdCCdCCdc2ncccc2dCNdC1.chk"
 -------------------
 Title Card Required
 -------------------
 Charge =  0 Multiplicity = 1

                         Standard orientation:
 ---------------------------------------------------------------------
 Center     Atomic      Atomic             Coordinates (Angstroms)
 Number     Number       Type             X           Y           Z
 ---------------------------------------------------------------------
      1          6           0       -7.997798   -0.909800   -0.449727
      2          6           0       -6.795976    0.025779   -0.612484
      3          6           0       -5.673035   -0.196227    0.341526
      4          6           0       -4.445809    0.372856   -0.064159
      5          6           0       -3.284256   -0.127039    0.472936
      6          6           0       -1.966937    0.177950    0.024448
      7          6           0       -0.849118   -0.398590    0.542669
      8          6           0        0.491642   -0.102174    0.131219
      9          6           0        1.567808   -0.748305    0.647107
     10          6           0        2.965012   -0.669897    0.250262
     11          7           0        3.639400   -1.811748    0.521214
     12          6           0        4.868141   -1.976544    0.058919
     13          6           0        5.525862   -1.020767   -0.721619
     14          6           0        4.889488    0.185753   -0.931663
     15          6           0        3.605946    0.422544   -0.405440
     16          6           0        3.098072    1.777436   -0.534836
     17          7           0        2.243359    2.326603    0.252053
     18          6           0        1.279139    2.700537    0.885174
     19          1           0       -8.839707   -0.596271   -1.076256
     20          1           0       -8.322232   -0.935562    0.594063
     21          1           0       -7.729917   -1.931992   -0.736138
     22          1           0       -7.100295    1.054497   -0.324372
     23          1           0       -6.502937    0.109622   -1.674804
     24          1           0       -4.356467    1.128525   -0.860102
     25          1           0       -3.395593   -0.853262    1.275640
     26          1           0       -1.860231    0.922871   -0.762116
     27          1           0       -0.968177   -1.148274    1.324083
     28          1           0        0.610096    0.622713   -0.666671
     29          1           0        1.390876   -1.534288    1.377458
     30          1           0        5.355642   -2.915864    0.309702
     31          1           0        6.517416   -1.211715   -1.115493
     32          1           0        5.387365    0.981649   -1.477829
     33          1           0        3.570521    2.432037   -1.262318
     34          1           0        1.395238    3.190258    1.856279
 ---------------------------------------------------------------------

 SCF Done:  E(RB3LYP) =  -728.649793723     A.U. after    1 cycles

 The electronic state is 1-A.
 Alpha  occ. eigenvalues --  -14.41377 -14.33118 -10.24618 -10.24006 -10.23827
 Alpha  occ. eigenvalues --  -10.22497 -10.22387 -10.21430 -10.20691 -10.20366
 Alpha  occ. eigenvalues --  -10.20285 -10.20152 -10.19976 -10.19538 -10.17373
 Alpha  occ. eigenvalues --  -10.17176 -10.16317 -10.15643  -0.99261  -0.94967
 Alpha  occ. eigenvalues --   -0.83445  -0.83135  -0.80875  -0.78951  -0.77116
 Alpha  occ. eigenvalues --   -0.75272  -0.72367  -0.67540  -0.64859  -0.63417
 Alpha  occ. eigenvalues --   -0.60444  -0.57910  -0.56172  -0.54909  -0.52664
 Alpha  occ. eigenvalues --   -0.52112  -0.51224  -0.49503  -0.48536  -0.46390
 Alpha  occ. eigenvalues --   -0.45853  -0.43562  -0.42720  -0.42494  -0.41920
 Alpha  occ. eigenvalues --   -0.41232  -0.40184  -0.39803  -0.38334  -0.36671
 Alpha  occ. eigenvalues --   -0.36135  -0.35685  -0.34646  -0.34561  -0.33833
 Alpha  occ. eigenvalues --   -0.32116  -0.31005  -0.30671  -0.27327  -0.26214
 Alpha  occ. eigenvalues --   -0.22771  -0.20684  -0.16666
 Alpha virt. eigenvalues --   -0.09689  -0.05405  -0.03782  -0.02306   0.00535
 Alpha virt. eigenvalues --    0.02738   0.06629   0.09279   0.09490   0.09593
 Alpha virt. eigenvalues --    0.12199   0.12367   0.13417   0.13538   0.14299

 Mulliken charges:
               1
     1  C   -0.366426
     2  C   -0.182228
     3  C   -0.159534
     4  C   -0.088201
     5  C   -0.014571
     6  C   -0.104814
     7  C   -0.040517
     8  C   -0.104036
     9  C   -0.141373
    10  C    0.211323
    11  N   -0.318250
    12  C   -0.005877
    13  C   -0.139413
    14  C   -0.118695
    15  C    0.161018
    16  C   -0.173683
    17  N    0.103481
    18  C   -0.276873
    19  H    0.097043
    20  H    0.121866
    21  H    0.114634
    22  H    0.126769
    23  H    0.083076
    24  H    0.056484
    25  H    0.111189
    26  H    0.096603
    27  H    0.100547
    28  H    0.112578
    29  H    0.111234
    30  H    0.112493
    31  H    0.107565
    32  H    0.105693
    33  H    0.130720
    34  H    0.170174
 Sum of Mulliken charges =  -0.00000

 Dipole moment (field-independent basis, Debye):
    X=              5.6898    Y=              2.5212    Z=             -1.6972  Tot=              6.4507
 Quadrupole moment (field-independent basis, Debye-Ang):
   XX=           -107.4906   YY=           -102.3223   ZZ=           -104.3004
   XY=              0.1811   XZ=              1.9186   YZ=              0.5225

  Exact polarizability: 600.393 -34.542 184.082  -9.152  -8.259 128.962
 Approx polarizability: 967.353-115.557 329.882 -36.315 -14.009 229.455

                      1                      2                      3
                      A                      A                      A
 Frequencies --     21.7540                35.5685                45.5270
 Red. masses --      4.5556                 4.5738                 2.1213
 Frc consts  --      0.0013                 0.0034                 0.0026
 IR Inten    --      0.5528                 0.2795                 1.8432

                      4                      5                      6
                      A                      A                      A
 Frequencies --     55.8732                74.5805                86.5722
 Red. masses --      4.3754                 3.3440                 3.2751
 Frc consts  --      0.0080                 0.0110                 0.0145
 IR Inten    --      8.0877                 0.8125                 3.4197

                      7                      8                      9
                      A                      A                      A
 Frequencies --    116.0394               127.8541               135.0061
 Red. masses --      4.2259                 2.9809                 3.9612
 Frc consts  --      0.0335                 0.0287                 0.0425
 IR Inten    --      3.0746                13.2387                 7.3511

                     10                     11                     12
                      A                      A                      A
 Frequencies --    172.9056               185.9944               213.9020
 Red. masses --      3.2991                 3.8212                 1.3596
 Frc consts  --      0.0581                 0.0779                 0.0367
 IR Inten    --     15.3897                 2.9583                 7.6006

                     13                     14                     15
                      A                      A                      A
 Frequencies --    232.2129               263.3235               277.3946
 Red. masses --      3.6095                 3.1475                 3.4652
 Frc consts  --      0.1147                 0.1286                 0.1571
 IR Inten    --     11.3448                 6.2565                27.6251

                     16                     17                     18
                      A                      A                      A
 Frequencies --    293.1273               336.3434               340.9877
 Red. masses --      3.0869                 2.9233                 3.6223
 Frc consts  --      0.1563                 0.1948                 0.2481
 IR Inten    --      4.6979                 5.4264                 2.5625

                     19                     20                     21
                      A                      A                      A
 Frequencies --    382.1259               413.5545               437.7250
 Red. masses --      4.1767                 3.4824                 4.2280
 Frc consts  --      0.3593                 0.3509                 0.4773
 IR Inten    --     17.8042                 6.1325                21.3046

                     22                     23                     24
                      A                      A                      A
 Frequencies --    458.3800               469.2493               495.9208
 Red. masses --      2.5504                 3.7362                 4.2365
 Frc consts  --      0.3157                 0.4847                 0.6139
 IR Inten    --     19.6994                16.1610                 4.6074

                     25                     26                     27
                      A                      A                      A
 Frequencies --    524.7702               550.7804               587.4358
 Red. masses --      3.3489                 3.3436                 3.5856
 Frc consts  --      0.5434                 0.5976                 0.7290
 IR Inten    --    120.6511                13.7761                 2.2000

                     28                     29                     30
                      A                      A                      A
 Frequencies --    630.3514               653.7422               664.2013
 Red. masses --      6.0056                 2.7431                 1.5776
 Frc consts  --      1.4060                 0.6907                 0.4101
 IR Inten    --      4.7954                40.3789               207.8509

                     31                     32                     33
                      A                      A                      A
 Frequencies --    683.0742               760.6404               790.6098
 Red. masses --      3.2935                 4.4541                 1.9694
 Frc consts  --      0.9054                 1.5183                 0.7253
 IR Inten    --     17.6757                 7.0473                 8.6942

                     34                     35                     36
                      A                      A                      A
 Frequencies --    833.5965               852.0151               871.4692
 Red. masses --      1.7773                 2.0047                 1.3893
 Frc consts  --      0.7276                 0.8574                 0.6216
 IR Inten    --     67.3360               219.0363               346.4514

                     37                     38                     39
                      A                      A                      A
 Frequencies --    881.7162               908.2383               912.1976
 Red. masses --      1.7584                 2.1224                 1.5305
 Frc consts  --      0.8054                 1.0315                 0.7503
 IR Inten    --     34.9234                14.6925                 3.6959

                     40                     41                     42
                      A                      A                      A
 Frequencies --    921.4847               934.6583               948.1480
 Red. masses --      1.8499                 1.9001                 1.4256
 Frc consts  --      0.9255                 0.9780                 0.7551
 IR Inten    --     16.4358                 3.5548               202.3484

                     43                     44                     45
                      A                      A                      A
 Frequencies --    960.9563               964.0218               986.6559
 Red. masses --      1.3547                 1.2470                 1.3556
 Frc consts  --      0.7371                 0.6828                 0.7775
 IR Inten    --      3.9740                 7.2104                 0.9010

                     46                     47                     48
                      A                      A                      A
 Frequencies --   1005.2009              1054.9158              1061.0548
 Red. masses --      1.1421                 1.1299                 3.0919
 Frc consts  --      0.6799                 0.7408                 2.0509
 IR Inten    --     34.2633                58.6571                21.3807

                     49                     50                     51
                      A                      A                      A
 Frequencies --   1072.3263              1091.3217              1137.8391
 Red. masses --      2.6733                 1.7823                 1.8420
 Frc consts  --      1.8111                 1.2506                 1.4051
 IR Inten    --     11.1720                34.7896                45.3266

                     52                     53                     54
                      A                      A                      A
 Frequencies --   1148.7626              1174.8654              1184.0127
 Red. masses --      2.0637                 2.2518                 2.7824
 Frc consts  --      1.6046                 1.8313                 2.2982
 IR Inten    --    163.1386                 2.6263                15.8838

                     55                     56                     57
                      A                      A                      A
 Frequencies --   1201.3627              1226.1813              1231.7060
 Red. masses --      1.6634                 1.7587                 2.2843
 Frc consts  --      1.4145                 1.5579                 2.0419
 IR Inten    --      1.5514                14.8593                 3.5270

                     58                     59                     60
                      A                      A                      A
 Frequencies --   1237.7717              1253.1076              1275.6152
 Red. masses --      1.5100                 1.6426                 1.6271
 Frc consts  --      1.3630                 1.5197                 1.5599
 IR Inten    --      8.2482                25.0849                19.0080

                     61                     62                     63
                      A                      A                      A
 Frequencies --   1283.6025              1309.2303              1320.3229
 Red. masses --      1.6095                 1.5680                 1.7839
 Frc consts  --      1.5625                 1.5835                 1.8323
 IR Inten    --      3.0299                15.0263                 8.1298

                     64                     65                     66
                      A                      A                      A
 Frequencies --   1323.1101              1343.1071              1351.0837
 Red. masses --      1.7930                 1.9874                 1.5243
 Frc consts  --      1.8494                 2.1123                 1.6393
 IR Inten    --      1.1360                 4.2317                30.2760

                     67                     68                     69
                      A                      A                      A
 Frequencies --   1382.4032              1397.5598              1406.3428
 Red. masses --      1.5781                 1.2931                 1.2452
 Frc consts  --      1.7769                 1.4881                 1.4510
 IR Inten    --     72.5623                 2.2414                 1.3899

                     70                     71                     72
                      A                      A                      A
 Frequencies --   1435.0345              1464.4540              1491.7276
 Red. masses --      2.5191                 2.1852                 1.0426
 Frc consts  --      3.0565                 2.7611                 1.3669
 IR Inten    --     49.0216                41.5620                 8.5543

                     73                     74                     75
                      A                      A                      A
 Frequencies --   1492.6946              1502.0669              1559.8121
 Red. masses --      2.8347                 1.0461                 4.2413
 Frc consts  --      3.7213                 1.3906                 6.0798
 IR Inten    --     21.0538                 3.3449               227.8043

                     76                     77                     78
                      A                      A                      A
 Frequencies --   1572.5388              1616.2877              1632.7645
 Red. masses --      4.8550                 5.3031                 4.7753
 Frc consts  --      7.0736                 8.1625                 7.5006
 IR Inten    --     99.3752                 9.8894               169.1851

                     79                     80                     81
                      A                      A                      A
 Frequencies --   1648.4801              2013.9812              2907.7640
 Red. masses --      5.1256                 8.3630                 1.0602
 Frc consts  --      8.2065                19.9860                 5.2813
 IR Inten    --     12.7309               184.4137                16.5784

                     82                     83                     84
                      A                      A                      A
 Frequencies --   2944.7997              2981.7254              3033.6482
 Red. masses --      1.0942                 1.0849                 1.0355
 Frc consts  --      5.5907                 5.6832                 5.6150
 IR Inten    --     76.5243                59.2943                89.5533

                     85                     86                     87
                      A                      A                      A
 Frequencies --   3098.1987              3101.8352              3117.4365
 Red. masses --      1.1013                 1.0992                 1.1014
 Frc consts  --      6.2284                 6.2312                 6.3063
 IR Inten    --     35.0219                 7.9251                29.0054

                     88                     89                     90
                      A                      A                      A
 Frequencies --   3138.4866              3147.1120              3152.4532
 Red. masses --      1.0890                 1.0873                 1.0878
 Frc consts  --      6.3200                 6.3449                 6.3692
 IR Inten    --      2.6189                 8.2081                31.4700

                     91                     92                     93
                      A                      A                      A
 Frequencies --   3153.4221              3160.8661              3163.0310
 Red. masses --      1.0865                 1.0879                 1.0873
 Frc consts  --      6.3656                 6.4038                 6.4091
 IR Inten    --      5.4576                 3.4591                13.9053

                     94                     95                     96
                      A                      A                      A
 Frequencies --   3169.7807              3192.7525              3202.2622
 Red. masses --      1.0883                 1.0879                 1.0956
 Frc consts  --      6.4427                 6.5338                 6.6194
 IR Inten    --     13.9940                14.3551                21.9680

 - Thermochemistry -
 -------------------
 Temperature   298.150 Kelvin.  Pressure   1.00000 Atm.
 Atom     1 has atomic number  6 and mass  12.00000

 Molecular mass:   236.13135 amu.
 Principal axes and moments of inertia in atomic units:
                           1         2         3
     Eigenvalues --  1620.13338********************
           X            0.99999   0.00273   0.00222
           Y           -0.00270   0.99991  -0.01310
           Z           -0.00225   0.01309   0.99991
 This molecule is an asymmetric top.
 Rotational symmetry number  1.
 Warning -- assumption of classical behavior for rotation
           may cause significant error
 Rotational temperatures (Kelvin)      0.05346     0.00566     0.00529
 Rotational constants (GHZ):           1.11395     0.11801     0.11031
 Zero-point vibrational energy     712142.4 (Joules/Mol)
                                  170.20611 (Kcal/Mol)
 Warning -- explicit consideration of  27 degrees of freedom as
           vibrations may cause significant error
 Vibrational temperatures:     31.30    51.18    65.50    80.39   107.30
          (Kelvin)            124.56   166.95   183.95   194.24   248.77
                              267.60   307.76   334.10   378.86   399.11
                              421.74   483.92   490.61   549.79   595.01
                              629.79   659.51   675.15   713.52   755.03
                              792.45   845.19   906.94   940.59   955.64
                              982.79  1094.39  1137.51  1199.36  1225.86
                             1253.85  1268.59  1306.75  1312.45  1325.81
                             1344.76  1364.17  1382.60  1387.01  1419.58
                             1446.26  1517.79  1526.62  1542.84  1570.17
                             1637.10  1652.81  1690.37  1703.53  1728.49
                             1764.20  1772.15  1780.88  1802.94  1835.33
                             1846.82  1883.69  1899.65  1903.66  1932.43
                             1943.91  1988.97  2010.78  2023.41  2064.69
                             2107.02  2146.26  2147.65  2161.14  2244.22
                             2262.53  2325.48  2349.18  2371.80  2897.67
                             4183.62  4236.91  4290.04  4364.74  4457.62
                             4462.85  4485.30  4515.58  4527.99  4535.68
                             4537.07  4547.78  4550.90  4560.61  4593.66
                             4607.34

 Zero-point correction=                           0.271241 (Hartree/Particle)
 Thermal correction to Energy=                    0.289388
 Thermal correction to Enthalpy=                  0.290332
 Thermal correction to Gibbs Free Energy=         0.222970
 Sum of electronic and zero-point Energies=           -728.378553
 Sum of electronic and thermal Energies=              -728.360406
 Sum of electronic and thermal Enthalpies=            -728.359462
 Sum of electronic and thermal Free Energies=         -728.426824

                     E (Thermal)             CV                S
                      KCal/Mol        Cal/Mol-Kelvin    Cal/Mol-Kelvin
 Total                  181.594             67.204            141.776
 Electronic               0.000              0.000              0.000
 Translational            0.889              2.981             42.279
 Rotational               0.889              2.981             34.360
 Vibrational            179.816             61.243             65.137
 Vibration     1          0.593              1.985              6.467
 Vibration     2          0.594              1.982              5.492
 Vibration     3          0.595              1.979              5.003
 Vibration     4          0.596              1.975              4.598
 Vibration     5          0.599              1.966              4.029
 Vibration     6          0.601              1.959              3.736
 Vibration     7          0.608              1.936              3.165
 Vibration     8          0.611              1.925              2.978
 Vibration     9          0.613              1.918              2.873
 Vibration    10          0.626              1.876              2.404
 Vibration    11          0.632              1.859              2.267
 Vibration    12          0.644              1.820              2.010
 Vibration    13          0.653              1.792              1.862
 Vibration    14          0.670              1.740              1.640
 Vibration    15          0.678              1.715              1.550
 Vibration    16          0.688              1.687              1.456
 Vibration    17          0.717              1.603              1.229
 Vibration    18          0.721              1.594              1.208
 Vibration    19          0.752              1.508              1.031
 Vibration    20          0.777              1.441              0.914
 Vibration    21          0.798              1.388              0.834
 Vibration    22          0.816              1.342              0.771
 Vibration    23          0.826              1.318              0.740
 Vibration    24          0.851              1.259              0.668
 Vibration    25          0.880              1.195              0.599
 Vibration    26          0.906              1.138              0.543
 Vibration    27          0.945              1.059              0.472

 Optimization completed.
    -- Stationary point found.
 Normal termination of Gaussian 16 at Thu May 18 06:22:20 2023.
