 Gaussian 16, Revision A.03,
 Gaussian 16:  ES64L-G16RevA.03 25-Dec-2016

 -----------------------------
 # opt freq b3lyp/6-31g(2df,p)
 -----------------------------

 -------------------
 Title Card Required
 -------------------
 Symbolic Z-matrix:
 Charge =  0 Multiplicity = 1

 SCF Done:  E(RB3LYP) =  -1289.08857371     A.U. after   19 cycles
 SCF Done:  E(RB3LYP) =  -1289.11833191     A.U. after   16 cycles
 SCF Done:  E(RB3LYP) =  -1289.13359624     A.U. after   15 cycles
 SCF Done:  E(RB3LYP) =  -1289.14320588     A.U. after   15 cycles
 SCF Done:  E(RB3LYP) =  -1289.15244121     A.U. after   14 cycles
 SCF Done:  E(RB3LYP) =  -1289.16135914     A.U. after   15 cycles
 SCF Done:  E(RB3LYP) =  -1289.16694626     A.U. after   15 cycles
 SCF Done:  E(RB3LYP) =  -1289.17236615     A.U. after   15 cycles
 SCF Done:  E(RB3LYP) =  -1289.17704267     A.U. after   15 cycles
 SCF Done:  E(RB3LYP) =  -1289.17975868     A.U. after   14 cycles
 SCF Done:  E(RB3LYP) =  -1289.18999978     A.U. after   14 cycles
 SCF Done:  E(RB3LYP) =  -1289.19017764     A.U. after   13 cycles
 SCF Done:  E(RB3LYP) =  -1289.19024795     A.U. after   12 cycles
 SCF Done:  E(RB3LYP) =  -1289.19029841     A.U. after   13 cycles
 SCF Done:  E(RB3LYP) =  -1289.19035909     A.U. after   14 cycles
 SCF Done:  E(RB3LYP) =  -1289.19038446     A.U. after   13 cycles
 SCF Done:  E(RB3LYP) =  -1289.19038890     A.U. after   11 cycles
 SCF Done:  E(RB3LYP) =  -1289.19039024     A.U. after   11 cycles
 SCF Done:  E(RB3LYP) =  -1289.19039033     A.U. after    8 cycles
 Optimization completed.
    -- Stationary point found.
 Normal termination of Gaussian 16 at Thu May 18 22:22:52 2023.

 ----------------------------------------------------------------------
 #N Geom=AllCheck Guess=TCheck SCRF=Check GenChk RB3LYP/6-31G(2df,p) Fr
 eq
 ----------------------------------------------------------------------

 Structure from the checkpoint file:  "CCC1dCqCqNdNrNdNrCCd[SH]S1.chk"
 -------------------
 Title Card Required
 -------------------
 Charge =  0 Multiplicity = 1

                         Standard orientation:
 ---------------------------------------------------------------------
 Center     Atomic      Atomic             Coordinates (Angstroms)
 Number     Number       Type             X           Y           Z
 ---------------------------------------------------------------------
      1          6           0        0.013544    2.551273   -1.602697
      2          6           0       -0.142549    2.367032   -0.083594
      3          6           0        0.460875    1.062646    0.422537
      4          6           0       -0.253322   -0.115806    0.449370
      5          6           0       -1.687132   -0.200144   -0.033362
      6          7           0       -1.803245   -1.355429   -0.956753
      7          7           0       -2.002101   -0.987242   -2.124114
      8          7           0       -2.548983   -0.520196    1.132792
      9          7           0       -3.362239    0.388363    1.357218
     10          6           0        0.285764   -1.386911    1.047044
     11          6           0        1.425723   -2.096788    0.371910
     12         16           0        2.398222   -1.243248   -0.636261
     13         16           0        2.130465    1.142857    0.888841
     14          1           0       -0.371947    3.527386   -1.913011
     15          1           0       -0.530875    1.781003   -2.158917
     16          1           0        1.069671    2.499791   -1.885235
     17          1           0       -1.199324    2.434725    0.195181
     18          1           0        0.368703    3.186235    0.427899
     19          1           0       -2.033085    0.709793   -0.525612
     20          1           0       -2.043400   -1.845333   -2.702106
     21          1           0       -3.894623    0.107189    2.199668
     22          1           0       -0.507516   -2.087063    1.315307
     23          1           0        0.798724   -1.079105    1.985453
     24          1           0        1.858236   -2.973660    0.841800
     25          1           0        1.424996   -0.420992   -1.112961
 ---------------------------------------------------------------------

 SCF Done:  E(RB3LYP) =  -1289.19039033     A.U. after    1 cycles

 The electronic state is 1-A.
 Alpha  occ. eigenvalues --  -88.95107 -88.82622 -14.39706 -14.39423 -14.38823
 Alpha  occ. eigenvalues --  -14.38435 -10.25789 -10.24370 -10.22015 -10.21767
 Alpha  occ. eigenvalues --  -10.20229 -10.18189 -10.17238  -8.01356  -7.89063
 Alpha  occ. eigenvalues --   -5.97587  -5.97433  -5.97217  -5.85429  -5.85130
 Alpha  occ. eigenvalues --   -5.84748  -1.05233  -1.03203  -0.87653  -0.83474
 Alpha  occ. eigenvalues --   -0.79384  -0.75740  -0.72193  -0.67936  -0.66224
 Alpha  occ. eigenvalues --   -0.63196  -0.59926  -0.56923  -0.53752  -0.50019
 Alpha  occ. eigenvalues --   -0.48901  -0.48443  -0.46461  -0.45484  -0.44466
 Alpha  occ. eigenvalues --   -0.43946  -0.42945  -0.40779  -0.39855  -0.38565
 Alpha  occ. eigenvalues --   -0.38170  -0.37573  -0.36575  -0.35917  -0.34032
 Alpha  occ. eigenvalues --   -0.33582  -0.31114  -0.27554  -0.24698  -0.23937
 Alpha  occ. eigenvalues --   -0.20146  -0.20100
 Alpha virt. eigenvalues --   -0.10170  -0.06579  -0.04679   0.00525   0.01685
 Alpha virt. eigenvalues --    0.05876   0.08904   0.09645   0.10031   0.10366
 Alpha virt. eigenvalues --    0.11266   0.13430   0.14557   0.14993   0.15950

 Mulliken charges:
               1
     1  C   -0.386644
     2  C   -0.271879
     3  C    0.157821
     4  C    0.147465
     5  C   -0.013036
     6  N   -0.112417
     7  N   -0.265751
     8  N   -0.113120
     9  N   -0.262002
    10  C   -0.296012
    11  C   -0.058966
    12  S    0.020803
    13  S   -0.444240
    14  H    0.116268
    15  H    0.127349
    16  H    0.129194
    17  H    0.117547
    18  H    0.124991
    19  H    0.103073
    20  H    0.249137
    21  H    0.249578
    22  H    0.149129
    23  H    0.182288
    24  H    0.153121
    25  H    0.196305
 Sum of Mulliken charges =  -0.00000

 Dipole moment (field-independent basis, Debye):
    X=             -0.8984    Y=             -3.4378    Z=             -0.8352  Tot=              3.6501
 Quadrupole moment (field-independent basis, Debye-Ang):
   XX=            -93.6829   YY=            -88.4418   ZZ=            -87.6032
   XY=             -6.3829   XZ=             -5.5185   YZ=             -1.2365

  Exact polarizability: 169.489  -2.155 168.656  -6.359   8.127 128.382
 Approx polarizability: 282.977  25.381 377.032 -12.748  32.776 223.149

                      1                      2                      3
                      A                      A                      A
 Frequencies --     34.5200                48.9078                67.7578
 Red. masses --      5.6162                 7.1254                 6.0628
 Frc consts  --      0.0039                 0.0100                 0.0164
 IR Inten    --      0.3074                 1.4539                 7.5389

                      4                      5                      6
                      A                      A                      A
 Frequencies --     71.9950                83.1597                91.2660
 Red. masses --      5.8808                 3.5513                 5.3364
 Frc consts  --      0.0180                 0.0145                 0.0262
 IR Inten    --      0.9013                 3.1098                 2.8468

                      7                      8                      9
                      A                      A                      A
 Frequencies --    130.0726               169.6139               213.7935
 Red. masses --      8.3575                 4.4749                 5.4567
 Frc consts  --      0.0833                 0.0758                 0.1469
 IR Inten    --      1.8413                 7.4259                 1.9778

                     10                     11                     12
                      A                      A                      A
 Frequencies --    232.5957               239.1788               255.7901
 Red. masses --      2.9749                 1.2527                 2.7082
 Frc consts  --      0.0948                 0.0422                 0.1044
 IR Inten    --     11.5297                 6.1830                10.6600

                     13                     14                     15
                      A                      A                      A
 Frequencies --    273.6556               299.4967               381.6476
 Red. masses --      3.1673                 6.3217                 2.8152
 Frc consts  --      0.1397                 0.3341                 0.2416
 IR Inten    --      2.5670                 3.5171                 3.0980

                     16                     17                     18
                      A                      A                      A
 Frequencies --    402.3583               415.4707               435.4900
 Red. masses --      4.4392                 4.5867                 4.7567
 Frc consts  --      0.4234                 0.4665                 0.5315
 IR Inten    --      7.3541                 0.5317                 9.9873

                     19                     20                     21
                      A                      A                      A
 Frequencies --    480.9615               567.1468               603.9428
 Red. masses --      5.3740                 4.0147                 1.5511
 Frc consts  --      0.7324                 0.7608                 0.3333
 IR Inten    --      0.2062                22.5631                26.2999

                     22                     23                     24
                      A                      A                      A
 Frequencies --    634.0632               671.3902               707.4996
 Red. masses --      2.2712                 3.9839                 4.4336
 Frc consts  --      0.5380                 1.0581                 1.3076
 IR Inten    --     28.2729                 0.4165                 1.6073

                     25                     26                     27
                      A                      A                      A
 Frequencies --    773.3658               803.2823               807.5269
 Red. masses --      2.0977                 1.5050                 1.2024
 Frc consts  --      0.7392                 0.5721                 0.4620
 IR Inten    --     22.4149                17.9531                 2.4809

                     28                     29                     30
                      A                      A                      A
 Frequencies --    841.9121               849.2539               902.0921
 Red. masses --      1.9940                 1.9943                 2.2559
 Frc consts  --      0.8327                 0.8475                 1.0816
 IR Inten    --      6.4581                13.1382                62.7976

                     31                     32                     33
                      A                      A                      A
 Frequencies --    932.9807               957.7606              1003.7782
 Red. masses --      1.7874                 2.1459                 1.7898
 Frc consts  --      0.9167                 1.1598                 1.0625
 IR Inten    --     27.3412                19.9955                17.3859

                     34                     35                     36
                      A                      A                      A
 Frequencies --   1016.9820              1062.1125              1064.4537
 Red. masses --      1.7361                 2.2397                 2.4149
 Frc consts  --      1.0579                 1.4886                 1.6122
 IR Inten    --      6.5675                 8.5127                13.0176

                     37                     38                     39
                      A                      A                      A
 Frequencies --   1080.8889              1101.0685              1126.1996
 Red. masses --      2.1143                 1.6560                 2.3149
 Frc consts  --      1.4554                 1.1829                 1.7299
 IR Inten    --     36.4097                32.3887                 7.7732

                     40                     41                     42
                      A                      A                      A
 Frequencies --   1164.4159              1218.4624              1285.9001
 Red. masses --      1.3363                 2.0997                 1.4613
 Frc consts  --      1.0675                 1.8367                 1.4236
 IR Inten    --     18.6892                42.2679                15.8060

                     43                     44                     45
                      A                      A                      A
 Frequencies --   1288.6333              1304.4909              1325.6070
 Red. masses --      1.3652                 1.2422                 1.3683
 Frc consts  --      1.3356                 1.2454                 1.4167
 IR Inten    --      9.4592                12.4619                11.2766

                     46                     47                     48
                      A                      A                      A
 Frequencies --   1341.6532              1360.8830              1396.4010
 Red. masses --      1.4022                 1.3900                 1.2218
 Frc consts  --      1.4871                 1.5168                 1.4037
 IR Inten    --      0.6535                 0.4111                20.5492

                     49                     50                     51
                      A                      A                      A
 Frequencies --   1405.1790              1475.9918              1489.3031
 Red. masses --      1.2205                 1.2512                 1.2405
 Frc consts  --      1.4199                 1.6061                 1.6211
 IR Inten    --      1.0591                26.5488                18.3071

                     52                     53                     54
                      A                      A                      A
 Frequencies --   1497.1422              1501.7144              1511.0757
 Red. masses --      1.0570                 1.1079                 1.1125
 Frc consts  --      1.3959                 1.4720                 1.4966
 IR Inten    --      7.2849                 8.3479                 3.3703

                     55                     56                     57
                      A                      A                      A
 Frequencies --   1532.8614              1633.8591              1656.1516
 Red. masses --      4.9221                10.3975                10.6884
 Frc consts  --      6.8141                16.3534                17.2728
 IR Inten    --     33.3121                 8.2295                20.9112

                     58                     59                     60
                      A                      A                      A
 Frequencies --   2500.1714              2883.7250              3032.7099
 Red. masses --      1.0386                 1.0700                 1.0343
 Frc consts  --      3.8252                 5.2427                 5.6049
 IR Inten    --     59.2691                 2.9785                20.5953

                     61                     62                     63
                      A                      A                      A
 Frequencies --   3049.5245              3089.8705              3104.3042
 Red. masses --      1.0635                 1.0988                 1.0876
 Frc consts  --      5.8271                 6.1807                 6.1753
 IR Inten    --     14.0909                 0.9960                15.9429

                     64                     65                     66
                      A                      A                      A
 Frequencies --   3107.5983              3110.8063              3113.4429
 Red. masses --      1.1000                 1.0863                 1.1012
 Frc consts  --      6.2587                 6.1936                 6.2891
 IR Inten    --     21.6163                 1.4670                20.6303

                     67                     68                     69
                      A                      A                      A
 Frequencies --   3199.4393              3247.0940              3248.4225
 Red. masses --      1.0883                 1.0739                 1.0738
 Frc consts  --      6.5638                 6.6713                 6.6759
 IR Inten    --      3.3301                27.7168                18.6286

 - Thermochemistry -
 -------------------
 Temperature   298.150 Kelvin.  Pressure   1.00000 Atm.
 Atom     1 has atomic number  6 and mass  12.00000

 Molecular mass:   216.05034 amu.
 Principal axes and moments of inertia in atomic units:
                           1         2         3
     Eigenvalues --  2389.134663626.807164306.59947
           X            0.99987  -0.01600  -0.00143
           Y            0.01583   0.99655  -0.08144
           Z            0.00273   0.08141   0.99668
 This molecule is an asymmetric top.
 Rotational symmetry number  1.
 Warning -- assumption of classical behavior for rotation
           may cause significant error
 Rotational temperatures (Kelvin)      0.03625     0.02388     0.02011
 Rotational constants (GHZ):           0.75540     0.49761     0.41906
 Zero-point vibrational energy     501906.8 (Joules/Mol)
                                  119.95861 (Kcal/Mol)
 Warning -- explicit consideration of  21 degrees of freedom as
           vibrations may cause significant error
 Vibrational temperatures:     49.67    70.37    97.49   103.58   119.65
          (Kelvin)            131.31   187.15   244.04   307.60   334.65
                              344.12   368.02   393.73   430.91   549.11
                              578.90   597.77   626.57   692.00   816.00
                              868.94   912.28   965.98  1017.93  1112.70
                             1155.74  1161.85  1211.32  1221.89  1297.91
                             1342.35  1378.00  1444.21  1463.21  1528.14
                             1531.51  1555.16  1584.19  1620.35  1675.33
                             1753.10  1850.12  1854.06  1876.87  1907.25
                             1930.34  1958.01  2009.11  2021.74  2123.62
                             2142.77  2154.05  2160.63  2174.10  2205.45
                             2350.76  2382.83  3597.19  4149.04  4363.39
                             4387.59  4445.63  4466.40  4471.14  4475.76
                             4479.55  4603.28  4671.84  4673.76

 Zero-point correction=                           0.191166 (Hartree/Particle)
 Thermal correction to Energy=                    0.206030
 Thermal correction to Enthalpy=                  0.206974
 Thermal correction to Gibbs Free Energy=         0.147783
 Sum of electronic and zero-point Energies=          -1288.999224
 Sum of electronic and thermal Energies=             -1288.984361
 Sum of electronic and thermal Enthalpies=           -1288.983416
 Sum of electronic and thermal Free Energies=        -1289.042607

                     E (Thermal)             CV                S
                      KCal/Mol        Cal/Mol-Kelvin    Cal/Mol-Kelvin
 Total                  129.286             52.725            124.578
 Electronic               0.000              0.000              0.000
 Translational            0.889              2.981             42.014
 Rotational               0.889              2.981             31.990
 Vibrational            127.508             46.763             50.573
 Vibration     1          0.594              1.983              5.551
 Vibration     2          0.595              1.978              4.861
 Vibration     3          0.598              1.970              4.217
 Vibration     4          0.598              1.967              4.098
 Vibration     5          0.600              1.961              3.815
 Vibration     6          0.602              1.955              3.633
 Vibration     7          0.612              1.923              2.945
 Vibration     8          0.625              1.880              2.440
 Vibration     9          0.644              1.820              2.011
 Vibration    10          0.653              1.791              1.859
 Vibration    11          0.657              1.781              1.809
 Vibration    12          0.666              1.753              1.690
 Vibration    13          0.676              1.722              1.573
 Vibration    14          0.692              1.675              1.420
 Vibration    15          0.751              1.509              1.033
 Vibration    16          0.768              1.465              0.954
 Vibration    17          0.779              1.437              0.907
 Vibration    18          0.796              1.393              0.841
 Vibration    19          0.837              1.292              0.707
 Vibration    20          0.923              1.102              0.510
 Vibration    21          0.962              1.023              0.443

 Optimization completed.
    -- Stationary point found.
 Normal termination of Gaussian 16 at Thu May 18 23:44:53 2023.
