 Gaussian 16, Revision A.03,
 Gaussian 16:  ES64L-G16RevA.03 25-Dec-2016

 -----------------------------
 # opt freq b3lyp/6-31g(2df,p)
 -----------------------------

 -------------------
 Title Card Required
 -------------------
 Symbolic Z-matrix:
 Charge =  0 Multiplicity = 1

 SCF Done:  E(RB3LYP) =  -1261.40774386     A.U. after   19 cycles
 SCF Done:  E(RB3LYP) =  -1260.68033371     A.U. after   22 cycles
 SCF Done:  E(RB3LYP) =  -1261.56717680     A.U. after   17 cycles
 SCF Done:  E(RB3LYP) =  -1261.59405621     A.U. after   16 cycles
 SCF Done:  E(RB3LYP) =  -1261.64086345     A.U. after   15 cycles
 SCF Done:  E(RB3LYP) =  -1261.70947838     A.U. after   15 cycles
 SCF Done:  E(RB3LYP) =  -1261.78912619     A.U. after   15 cycles
 SCF Done:  E(RB3LYP) =  -1261.79742690     A.U. after   15 cycles
 SCF Done:  E(RB3LYP) =  -1261.83335810     A.U. after   13 cycles
 SCF Done:  E(RB3LYP) =  -1261.87017016     A.U. after   14 cycles
 SCF Done:  E(RB3LYP) =  -1261.97997675     A.U. after   10 cycles
 SCF Done:  E(RB3LYP) =  -1261.97998557     A.U. after    9 cycles
 SCF Done:  E(RB3LYP) =  -1261.97999247     A.U. after    9 cycles
 SCF Done:  E(RB3LYP) =  -1261.97999432     A.U. after    8 cycles
 SCF Done:  E(RB3LYP) =  -1261.97999539     A.U. after    7 cycles
 SCF Done:  E(RB3LYP) =  -1261.97999623     A.U. after    7 cycles
 SCF Done:  E(RB3LYP) =  -1261.97999669     A.U. after    7 cycles
 SCF Done:  E(RB3LYP) =  -1261.97999696     A.U. after    7 cycles
 SCF Done:  E(RB3LYP) =  -1261.97999705     A.U. after    7 cycles
 Optimization completed.
    -- Stationary point found.
 Normal termination of Gaussian 16 at Thu May 18 16:40:06 2023.

 ----------------------------------------------------------------------
 #N Geom=AllCheck Guess=TCheck SCRF=Check GenChk RB3LYP/6-31G(2df,p) Fr
 eq
 ----------------------------------------------------------------------

 Structure from the checkpoint file:  "CCC1dCSCqCrdCdCqSrCdCCdC1.chk"
 -------------------
 Title Card Required
 -------------------
 Charge =  0 Multiplicity = 1

                         Standard orientation:
 ---------------------------------------------------------------------
 Center     Atomic      Atomic             Coordinates (Angstroms)
 Number     Number       Type             X           Y           Z
 ---------------------------------------------------------------------
      1          6           0        4.657573    0.187451    0.174783
      2          6           0        3.344302    0.183742    0.975643
      3          6           0        2.097545    0.281666    0.092541
      4          6           0        1.500008   -0.886183   -0.220805
      5         16           0        0.152162   -1.275825   -1.321543
      6          6           0       -0.971758   -1.851792    0.022540
      7          6           0       -0.722617   -3.205167    0.621735
      8          6           0       -1.856512   -0.959731    0.396909
      9          6           0       -2.256835    0.284142    0.541321
     10         16           0       -3.819914    0.987861    0.108222
     11          6           0       -1.094636    1.182483    0.790196
     12          6           0       -0.650332    1.951905   -0.213131
     13          6           0        0.719201    2.416637   -0.396031
     14          6           0        1.840296    1.675291   -0.324594
     15          1           0        5.519242    0.137228    0.847867
     16          1           0        4.764211    1.092687   -0.431300
     17          1           0        4.699438   -0.671877   -0.501125
     18          1           0        3.349069    1.020073    1.684880
     19          1           0        3.292119   -0.733724    1.570569
     20          1           0        1.921603   -1.775696    0.241669
     21          1           0        0.323381   -3.325474    0.921945
     22          1           0       -0.936409   -3.992598   -0.110000
     23          1           0       -1.357937   -3.361848    1.497679
     24          1           0       -4.355562   -0.122200   -0.435152
     25          1           0       -0.453697    0.941467    1.631737
     26          1           0       -1.327906    2.165310   -1.039647
     27          1           0        0.844648    3.449783   -0.718650
     28          1           0        2.764426    2.221616   -0.513984
 ---------------------------------------------------------------------

 SCF Done:  E(RB3LYP) =  -1261.97999705     A.U. after    1 cycles

 The electronic state is 1-A.
 Alpha  occ. eigenvalues --  -88.89106 -88.87421 -10.23327 -10.22839 -10.20807
 Alpha  occ. eigenvalues --  -10.20656 -10.19791 -10.19689 -10.19605 -10.19326
 Alpha  occ. eigenvalues --  -10.19155 -10.18828 -10.18798 -10.18248  -7.95598
 Alpha  occ. eigenvalues --   -7.93488  -5.92057  -5.91680  -5.91163  -5.89975
 Alpha  occ. eigenvalues --   -5.89675  -5.89024  -0.85473  -0.83056  -0.81181
 Alpha  occ. eigenvalues --   -0.78220  -0.74655  -0.73648  -0.70999  -0.69396
 Alpha  occ. eigenvalues --   -0.63738  -0.62324  -0.60316  -0.55517  -0.51468
 Alpha  occ. eigenvalues --   -0.49772  -0.47549  -0.46463  -0.45923  -0.44261
 Alpha  occ. eigenvalues --   -0.43342  -0.42919  -0.41515  -0.41426  -0.39893
 Alpha  occ. eigenvalues --   -0.39054  -0.37719  -0.36546  -0.36325  -0.35669
 Alpha  occ. eigenvalues --   -0.34211  -0.33234  -0.32188  -0.29540  -0.27762
 Alpha  occ. eigenvalues --   -0.25243  -0.23751  -0.22624  -0.19371
 Alpha virt. eigenvalues --   -0.05061  -0.03691   0.00749   0.02257   0.02910
 Alpha virt. eigenvalues --    0.06635   0.06643   0.08352   0.09254   0.09996
 Alpha virt. eigenvalues --    0.10467   0.12723   0.13836   0.14328   0.14915

 Mulliken charges:
               1
     1  C   -0.370085
     2  C   -0.262006
     3  C    0.233318
     4  C   -0.175808
     5  S   -0.175590
     6  C    0.072740
     7  C   -0.460338
     8  C    0.080457
     9  C    0.043685
    10  S   -0.223198
    11  C   -0.186664
    12  C   -0.054378
    13  C   -0.100184
    14  C   -0.101449
    15  H    0.117091
    16  H    0.123503
    17  H    0.125847
    18  H    0.108372
    19  H    0.106085
    20  H    0.101015
    21  H    0.134901
    22  H    0.142772
    23  H    0.130908
    24  H    0.165890
    25  H    0.113389
    26  H    0.117829
    27  H    0.097344
    28  H    0.094553
 Sum of Mulliken charges =  -0.00000

 Dipole moment (field-independent basis, Debye):
    X=              1.4198    Y=             -0.4660    Z=              1.0617  Tot=              1.8331
 Quadrupole moment (field-independent basis, Debye-Ang):
   XX=            -91.8237   YY=            -93.2108   ZZ=           -100.7075
   XY=              5.0132   XZ=              4.5529   YZ=             -3.7841

  Exact polarizability: 227.017  -6.436 184.827   0.196  -4.047 113.378
 Approx polarizability: 332.391 -18.865 328.415  -8.634  -3.247 201.801

                      1                      2                      3
                      A                      A                      A
 Frequencies --     43.7573                57.3786                70.2516
 Red. masses --      3.8428                 4.5624                 2.5060
 Frc consts  --      0.0043                 0.0088                 0.0073
 IR Inten    --      0.4369                 0.5296                 0.0359

                      4                      5                      6
                      A                      A                      A
 Frequencies --    101.4005               106.8351               147.0265
 Red. masses --      3.8789                 4.2283                 3.7793
 Frc consts  --      0.0235                 0.0284                 0.0481
 IR Inten    --      0.2017                 0.1515                 0.2225

                      7                      8                      9
                      A                      A                      A
 Frequencies --    161.5280               167.5116               175.0529
 Red. masses --      3.6063                 1.1765                 2.6617
 Frc consts  --      0.0554                 0.0195                 0.0481
 IR Inten    --      0.8954                 0.0529                 2.4579

                     10                     11                     12
                      A                      A                      A
 Frequencies --    205.5656               212.5470               238.7052
 Red. masses --      3.7183                 1.2047                 3.9590
 Frc consts  --      0.0926                 0.0321                 0.1329
 IR Inten    --      2.6526                 0.3797                 0.5668

                     13                     14                     15
                      A                      A                      A
 Frequencies --    266.0841               281.8160               325.8994
 Red. masses --      1.9619                 1.4900                 3.0058
 Frc consts  --      0.0818                 0.0697                 0.1881
 IR Inten    --      4.0865                11.2140                 0.7053

                     16                     17                     18
                      A                      A                      A
 Frequencies --    344.8573               365.1150               400.1723
 Red. masses --      3.9326                 3.3130                 3.7477
 Frc consts  --      0.2756                 0.2602                 0.3536
 IR Inten    --      2.1691                 3.3176                 4.1236

                     19                     20                     21
                      A                      A                      A
 Frequencies --    429.5329               457.1603               476.7202
 Red. masses --      4.7064                 7.1675                 5.6960
 Frc consts  --      0.5116                 0.8826                 0.7627
 IR Inten    --     15.1386                18.5267                 2.9725

                     22                     23                     24
                      A                      A                      A
 Frequencies --    528.3864               581.2141               585.2168
 Red. masses --      5.1404                 3.6095                 6.6850
 Frc consts  --      0.8456                 0.7184                 1.3489
 IR Inten    --      5.6107                12.5694                42.0857

                     25                     26                     27
                      A                      A                      A
 Frequencies --    605.6938               655.8704               722.5854
 Red. masses --      3.8409                 4.1466                 5.2428
 Frc consts  --      0.8302                 1.0509                 1.6128
 IR Inten    --      6.6573                11.7444                22.9339

                     28                     29                     30
                      A                      A                      A
 Frequencies --    770.3926               789.0694               809.4724
 Red. masses --      1.6701                 1.7550                 1.9930
 Frc consts  --      0.5840                 0.6438                 0.7694
 IR Inten    --      7.8348                 8.9749                24.0481

                     31                     32                     33
                      A                      A                      A
 Frequencies --    851.2435               855.7613               896.5097
 Red. masses --      1.7101                 1.6921                 1.8653
 Frc consts  --      0.7301                 0.7301                 0.8833
 IR Inten    --      9.7733                38.5043                 1.2720

                     34                     35                     36
                      A                      A                      A
 Frequencies --    903.7501               948.9016               973.2614
 Red. masses --      2.1530                 1.8648                 2.2240
 Frc consts  --      1.0361                 0.9893                 1.2412
 IR Inten    --     21.0181                 4.9753                17.3786

                     37                     38                     39
                      A                      A                      A
 Frequencies --    975.0384              1012.2516              1043.6261
 Red. masses --      1.3963                 1.2416                 2.5746
 Frc consts  --      0.7821                 0.7495                 1.6521
 IR Inten    --     17.8039                 5.3536                 4.0967

                     40                     41                     42
                      A                      A                      A
 Frequencies --   1047.4216              1061.6751              1088.0127
 Red. masses --      1.4491                 2.3146                 1.8883
 Frc consts  --      0.9367                 1.5371                 1.3170
 IR Inten    --      0.2529                12.8481                25.1267

                     43                     44                     45
                      A                      A                      A
 Frequencies --   1095.5974              1139.1798              1144.2918
 Red. masses --      1.7099                 2.9467                 2.4987
 Frc consts  --      1.2093                 2.2530                 1.9277
 IR Inten    --      2.0206                35.8823                22.8276

                     46                     47                     48
                      A                      A                      A
 Frequencies --   1253.8041              1280.3325              1294.8723
 Red. masses --      1.1854                 1.1793                 1.2240
 Frc consts  --      1.0979                 1.1390                 1.2092
 IR Inten    --      1.9688                 0.5582                 1.0521

                     49                     50                     51
                      A                      A                      A
 Frequencies --   1327.9006              1338.3442              1354.9415
 Red. masses --      1.2583                 1.3797                 1.2162
 Frc consts  --      1.3073                 1.4560                 1.3155
 IR Inten    --      4.8225                14.0830                 4.5541

                     52                     53                     54
                      A                      A                      A
 Frequencies --   1389.8395              1407.2536              1408.7075
 Red. masses --      3.2630                 1.3506                 1.2351
 Frc consts  --      3.7136                 1.5759                 1.4441
 IR Inten    --      5.1028                 0.3680                 2.1969

                     55                     56                     57
                      A                      A                      A
 Frequencies --   1450.8457              1475.5249              1485.0623
 Red. masses --      1.4688                 1.0486                 1.1122
 Frc consts  --      1.8216                 1.3451                 1.4452
 IR Inten    --      1.9243                 4.5063                 3.8525

                     58                     59                     60
                      A                      A                      A
 Frequencies --   1486.1748              1497.1636              1506.1063
 Red. masses --      1.0599                 1.0454                 1.0741
 Frc consts  --      1.3792                 1.3806                 1.4355
 IR Inten    --      1.6707                 6.8253                 3.9302

                     61                     62                     63
                      A                      A                      A
 Frequencies --   1629.6763              1666.0335              1670.2824
 Red. masses --      7.5703                 6.5657                 7.1733
 Frc consts  --     11.8459                10.7375                11.7909
 IR Inten    --      1.1889                 5.7469                 0.4289

                     64                     65                     66
                      A                      A                      A
 Frequencies --   1955.9616              2671.4734              3030.5777
 Red. masses --     11.6725                 1.0384                 1.0352
 Frc consts  --     26.3109                 4.3663                 5.6020
 IR Inten    --     75.7711                 1.5055                24.6608

                     67                     68                     69
                      A                      A                      A
 Frequencies --   3030.9254              3036.7110              3072.1064
 Red. masses --      1.0606                 1.0347                 1.1012
 Frc consts  --      5.7408                 5.6216                 6.1233
 IR Inten    --     20.0320                31.6248                 5.6521

                     70                     71                     72
                      A                      A                      A
 Frequencies --   3088.3907              3105.1114              3111.1075
 Red. masses --      1.0990                 1.0996                 1.0876
 Frc consts  --      6.1763                 6.2466                 6.2023
 IR Inten    --     11.0511                35.4626                 8.5487

                     73                     74                     75
                      A                      A                      A
 Frequencies --   3114.5610              3117.2087              3125.6400
 Red. masses --      1.0969                 1.1019                 1.0864
 Frc consts  --      6.2694                 6.3086                 6.2532
 IR Inten    --     16.8672                13.2962                13.0787

                     76                     77                     78
                      A                      A                      A
 Frequencies --   3134.0011              3137.0749              3184.5333
 Red. masses --      1.0870                 1.0910                 1.0889
 Frc consts  --      6.2905                 6.3259                 6.5061
 IR Inten    --     27.8469                37.7339                 4.9244

 - Thermochemistry -
 -------------------
 Temperature   298.150 Kelvin.  Pressure   1.00000 Atm.
 Atom     1 has atomic number  6 and mass  12.00000

 Molecular mass:   222.05369 amu.
 Principal axes and moments of inertia in atomic units:
                           1         2         3
     Eigenvalues --  2173.720334873.513196305.55105
           X            0.99979   0.01818   0.00892
           Y           -0.01792   0.99942  -0.02898
           Z           -0.00944   0.02881   0.99954
 This molecule is an asymmetric top.
 Rotational symmetry number  1.
 Warning -- assumption of classical behavior for rotation
           may cause significant error
 Rotational temperatures (Kelvin)      0.03985     0.01777     0.01374
 Rotational constants (GHZ):           0.83025     0.37032     0.28621
 Zero-point vibrational energy     579935.2 (Joules/Mol)
                                  138.60783 (Kcal/Mol)
 Warning -- explicit consideration of  25 degrees of freedom as
           vibrations may cause significant error
 Vibrational temperatures:     62.96    82.55   101.08   145.89   153.71
          (Kelvin)            211.54   232.40   241.01   251.86   295.76
                              305.81   343.44   382.84   405.47   468.90
                              496.17   525.32   575.76   618.00   657.75
                              685.89   760.23   836.24   842.00   871.46
                              943.65  1039.64  1108.42  1135.29  1164.65
                             1224.75  1231.25  1289.88  1300.29  1365.26
                             1400.31  1402.86  1456.40  1501.55  1507.01
                             1527.51  1565.41  1576.32  1639.03  1646.38
                             1803.94  1842.11  1863.03  1910.55  1925.58
                             1949.46  1999.67  2024.72  2026.82  2087.44
                             2122.95  2136.67  2138.27  2154.08  2166.95
                             2344.74  2397.05  2403.16  2814.19  3843.65
                             4360.33  4360.83  4369.15  4420.08  4443.51
                             4467.56  4476.19  4481.16  4484.97  4497.10
                             4509.13  4513.55  4581.83

 Zero-point correction=                           0.220886 (Hartree/Particle)
 Thermal correction to Energy=                    0.236704
 Thermal correction to Enthalpy=                  0.237648
 Thermal correction to Gibbs Free Energy=         0.177637
 Sum of electronic and zero-point Energies=          -1261.759111
 Sum of electronic and thermal Energies=             -1261.743293
 Sum of electronic and thermal Enthalpies=           -1261.742349
 Sum of electronic and thermal Free Energies=        -1261.802360

                     E (Thermal)             CV                S
                      KCal/Mol        Cal/Mol-Kelvin    Cal/Mol-Kelvin
 Total                  148.534             58.126            126.303
 Electronic               0.000              0.000              0.000
 Translational            0.889              2.981             42.096
 Rotational               0.889              2.981             32.568
 Vibrational            146.756             52.164             51.639
 Vibration     1          0.595              1.980              5.081
 Vibration     2          0.596              1.975              4.545
 Vibration     3          0.598              1.968              4.146
 Vibration     4          0.604              1.948              3.427
 Vibration     5          0.606              1.944              3.326
 Vibration     6          0.617              1.906              2.710
 Vibration     7          0.622              1.890              2.532
 Vibration     8          0.624              1.882              2.463
 Vibration     9          0.627              1.873              2.381
 Vibration    10          0.640              1.832              2.083
 Vibration    11          0.644              1.822              2.022
 Vibration    12          0.657              1.781              1.813
 Vibration    13          0.672              1.735              1.622
 Vibration    14          0.681              1.707              1.523
 Vibration    15          0.710              1.624              1.280
 Vibration    16          0.723              1.586              1.190
 Vibration    17          0.738              1.544              1.100
 Vibration    18          0.766              1.470              0.962
 Vibration    19          0.791              1.406              0.860
 Vibration    20          0.815              1.345              0.774
 Vibration    21          0.833              1.302              0.719
 Vibration    22          0.883              1.187              0.591
 Vibration    23          0.938              1.072              0.483
 Vibration    24          0.942              1.063              0.476
 Vibration    25          0.964              1.020              0.440

 Optimization completed.
    -- Stationary point found.
 Normal termination of Gaussian 16 at Thu May 18 18:31:43 2023.
