 Gaussian 16, Revision A.03,
 Gaussian 16:  ES64L-G16RevA.03 25-Dec-2016

 -----------------------------
 # opt freq b3lyp/6-31g(2df,p)
 -----------------------------

 -------------------
 Title Card Required
 -------------------
 Symbolic Z-matrix:
 Charge =  0 Multiplicity = 1

 SCF Done:  E(RB3LYP) =  -714.428750349     A.U. after   22 cycles
 SCF Done:  E(RB3LYP) =  -714.173816105     A.U. after   18 cycles
 SCF Done:  E(RB3LYP) =  -714.579116687     A.U. after   17 cycles
 SCF Done:  E(RB3LYP) =  -714.632402308     A.U. after   16 cycles
 SCF Done:  E(RB3LYP) =  -714.684933271     A.U. after   15 cycles
 SCF Done:  E(RB3LYP) =  -714.679779881     A.U. after   16 cycles
 SCF Done:  E(RB3LYP) =  -714.736500733     A.U. after   15 cycles
 SCF Done:  E(RB3LYP) =  -714.772935950     A.U. after   15 cycles
 SCF Done:  E(RB3LYP) =  -714.844540798     A.U. after   14 cycles
 SCF Done:  E(RB3LYP) =  -714.810851747     A.U. after   16 cycles
 SCF Done:  E(RB3LYP) =  -715.051936748     A.U. after    9 cycles
 SCF Done:  E(RB3LYP) =  -715.051945479     A.U. after   10 cycles
 SCF Done:  E(RB3LYP) =  -715.051950496     A.U. after    9 cycles
 SCF Done:  E(RB3LYP) =  -715.051954826     A.U. after    8 cycles
 SCF Done:  E(RB3LYP) =  -715.051958101     A.U. after    8 cycles
 SCF Done:  E(RB3LYP) =  -715.051958979     A.U. after    8 cycles
 SCF Done:  E(RB3LYP) =  -715.051959368     A.U. after    7 cycles
 SCF Done:  E(RB3LYP) =  -715.051959580     A.U. after    7 cycles
 SCF Done:  E(RB3LYP) =  -715.051959655     A.U. after    7 cycles
 Optimization completed.
    -- Stationary point found.

 The electronic state is 1-A.
 Alpha  occ. eigenvalues --  -14.30957 -10.23505 -10.20968 -10.20832 -10.20790
 Alpha  occ. eigenvalues --  -10.20751 -10.20626 -10.19628 -10.19540 -10.19060
 Alpha  occ. eigenvalues --  -10.18820 -10.18724 -10.18667 -10.18629 -10.18360
 Alpha  occ. eigenvalues --  -10.18288 -10.17764 -10.16761  -0.92852  -0.85326
 Alpha  occ. eigenvalues --   -0.82220  -0.80438  -0.78341  -0.76971  -0.74215
 Alpha  occ. eigenvalues --   -0.73170  -0.68826  -0.66251  -0.64635  -0.60823
 Alpha  occ. eigenvalues --   -0.60293  -0.57650  -0.56258  -0.55104  -0.52250
 Alpha  occ. eigenvalues --   -0.51270  -0.49104  -0.47552  -0.46255  -0.46104
 Alpha  occ. eigenvalues --   -0.45009  -0.44653  -0.43683  -0.43137  -0.41533
 Alpha  occ. eigenvalues --   -0.41412  -0.40964  -0.39466  -0.38538  -0.37530
 Alpha  occ. eigenvalues --   -0.36426  -0.35854  -0.35632  -0.34590  -0.33938
 Alpha  occ. eigenvalues --   -0.32635  -0.32633  -0.31531  -0.31427  -0.29835
 Alpha  occ. eigenvalues --   -0.29295  -0.26744  -0.25263  -0.21688  -0.18366
 Alpha virt. eigenvalues --   -0.06459  -0.02199   0.00765   0.01143   0.05183
 Alpha virt. eigenvalues --    0.06747   0.08541   0.09139   0.09884   0.11465
 Alpha virt. eigenvalues --    0.11570   0.12540   0.13934   0.14239   0.14934

 Mulliken charges:
               1
     1  C   -0.388607
     2  C   -0.171901
     3  C   -0.032672
     4  C   -0.061578
     5  C   -0.134688
     6  C    0.213069
     7  C   -0.174147
     8  C   -0.106007
     9  C   -0.119758
    10  C   -0.016435
    11  N   -0.192420
    12  C   -0.132338
    13  C   -0.016460
    14  C   -0.156630
    15  C   -0.068082
    16  C   -0.152577
    17  C   -0.193136
    18  C   -0.250155
    19  H    0.114437
    20  H    0.121635
    21  H    0.113356
    22  H    0.102640
    23  H    0.094740
    24  H    0.079837
    25  H    0.092317
    26  H    0.098401
    27  H    0.093344
    28  H    0.117328
    29  H    0.121037
    30  H    0.099596
    31  H    0.096184
    32  H    0.110379
    33  H    0.085065
    34  H    0.092681
    35  H    0.118442
    36  H    0.101796
    37  H    0.100230
    38  H    0.108530
    39  H    0.092548
 Sum of Mulliken charges =  -0.00000

 Dipole moment (field-independent basis, Debye):
    X=              3.2572    Y=             -0.1256    Z=              1.1959  Tot=              3.4721
 Quadrupole moment (field-independent basis, Debye-Ang):
   XX=           -117.2079   YY=           -104.0914   ZZ=           -109.5081
   XY=             -0.6495   XZ=             -4.1611   YZ=              2.4017

 Normal termination of Gaussian 16 at Sat May 20 15:54:26 2023.

 ----------------------------------------------------------------------
 #N Geom=AllCheck Guess=TCheck SCRF=Check GenChk RB3LYP/6-31G(2df,p) Fr
 eq
 ----------------------------------------------------------------------

 Structure from the checkpoint file:  "CCC1CdCC2dCCdCCdNCdCCdCC2CC1.chk"
 -------------------
 Title Card Required
 -------------------
 Charge =  0 Multiplicity = 1

                         Standard orientation:
 ---------------------------------------------------------------------
 Center     Atomic      Atomic             Coordinates (Angstroms)
 Number     Number       Type             X           Y           Z
 ---------------------------------------------------------------------
      1          6           0        5.145349    0.708407   -0.940667
      2          6           0        4.018492    0.802930    0.092724
      3          6           0        3.286341   -0.536022    0.357207
      4          6           0        2.670629   -1.155459   -0.882891
      5          6           0        1.373100   -1.325818   -1.172038
      6          6           0        0.226294   -0.829713   -0.368594
      7          6           0       -0.748590   -1.745358   -0.128693
      8          6           0       -1.963215   -1.513030    0.616941
      9          6           0       -3.226576   -1.821518    0.214391
     10          6           0       -4.061497   -0.649774    0.449715
     11          7           0       -4.653811   -0.004367   -0.513541
     12          6           0       -4.110530    1.294929   -0.532210
     13          6           0       -2.745842    1.299705   -0.485183
     14          6           0       -1.697660    2.241772   -0.227062
     15          6           0       -0.427251    1.881088    0.069001
     16          6           0        0.471385    0.628491    0.115488
     17          6           0        1.196113    0.580125    1.492602
     18          6           0        2.320579   -0.467465    1.563760
     19          1           0        5.672915    1.662794   -1.031515
     20          1           0        4.762680    0.447862   -1.932197
     21          1           0        5.881931   -0.051964   -0.656543
     22          1           0        3.302177    1.568580   -0.226502
     23          1           0        4.433294    1.151333    1.047592
     24          1           0        4.076739   -1.243004    0.654957
     25          1           0        3.387430   -1.589593   -1.576776
     26          1           0        1.119114   -1.922629   -2.046206
     27          1           0       -0.658852   -2.695407   -0.654094
     28          1           0       -1.878356   -0.746124    1.383757
     29          1           0       -3.425341   -2.481866   -0.623992
     30          1           0       -3.785347   -0.107774    1.364037
     31          1           0       -4.757246    2.163030   -0.636456
     32          1           0       -2.323959    0.316915   -0.608338
     33          1           0       -1.929037    3.303166   -0.156339
     34          1           0        0.217391    2.723401    0.324501
     35          1           0        1.254428    0.946941   -0.582120
     36          1           0        0.468289    0.379752    2.287561
     37          1           0        1.602473    1.578214    1.694131
     38          1           0        1.880804   -1.461595    1.696389
     39          1           0        2.912422   -0.271204    2.466007
 ---------------------------------------------------------------------

 SCF Done:  E(RB3LYP) =  -715.051959655     A.U. after    1 cycles
