 Gaussian 16, Revision A.03,
 Gaussian 16:  ES64L-G16RevA.03 25-Dec-2016

 -----------------------------
 # opt freq b3lyp/6-31g(2df,p)
 -----------------------------

 -------------------
 Title Card Required
 -------------------
 Symbolic Z-matrix:
 Charge =  0 Multiplicity = 1

 SCF Done:  E(RB3LYP) =  -614.234282137     A.U. after   23 cycles
 SCF Done:  E(RB3LYP) =  -614.325899883     A.U. after   18 cycles
 SCF Done:  E(RB3LYP) =  -614.445930577     A.U. after   17 cycles
 SCF Done:  E(RB3LYP) =  -614.490065644     A.U. after   18 cycles
 SCF Done:  E(RB3LYP) =  -614.592178738     A.U. after   16 cycles
 SCF Done:  E(RB3LYP) =  -614.669872726     A.U. after   16 cycles
 SCF Done:  E(RB3LYP) =  -614.714286133     A.U. after   14 cycles
 SCF Done:  E(RB3LYP) =  -614.762046545     A.U. after   14 cycles
 SCF Done:  E(RB3LYP) =  -614.790568197     A.U. after   13 cycles
 SCF Done:  E(RB3LYP) =  -614.807243904     A.U. after   13 cycles
 SCF Done:  E(RB3LYP) =  -614.842456462     A.U. after   13 cycles
 SCF Done:  E(RB3LYP) =  -614.842894654     A.U. after   12 cycles
 SCF Done:  E(RB3LYP) =  -614.843262059     A.U. after   12 cycles
 SCF Done:  E(RB3LYP) =  -614.843304263     A.U. after   12 cycles
 SCF Done:  E(RB3LYP) =  -614.843331201     A.U. after    9 cycles
 SCF Done:  E(RB3LYP) =  -614.843335491     A.U. after    9 cycles
 SCF Done:  E(RB3LYP) =  -614.843336722     A.U. after    8 cycles
 SCF Done:  E(RB3LYP) =  -614.843337102     A.U. after    7 cycles
 SCF Done:  E(RB3LYP) =  -614.843337247     A.U. after    7 cycles
 Optimization completed.
    -- Stationary point found.
 Normal termination of Gaussian 16 at Thu May 18 17:51:51 2023.

 ----------------------------------------------------------------------
 #N Geom=AllCheck Guess=TCheck SCRF=Check GenChk RB3LYP/6-31G(2df,p) Fr
 eq
 ----------------------------------------------------------------------

 Structure from the checkpoint file:  "CCC1dCCqCrdCdCCdCdCOC1dO.chk"
 -------------------
 Title Card Required
 -------------------
 Charge =  0 Multiplicity = 1

                         Standard orientation:
 ---------------------------------------------------------------------
 Center     Atomic      Atomic             Coordinates (Angstroms)
 Number     Number       Type             X           Y           Z
 ---------------------------------------------------------------------
      1          6           0        3.721909    0.216666    0.357234
      2          6           0        2.805801   -0.248250   -0.786654
      3          6           0        1.354909   -0.360950   -0.381814
      4          6           0        0.680168   -1.521263   -0.395834
      5          6           0       -0.755929   -1.713114   -0.084677
      6          6           0       -1.085177   -2.787710    0.934323
      7          6           0       -1.687614   -0.996139   -0.664735
      8          6           0       -2.542452   -0.128795   -1.153398
      9          6           0       -2.595020    1.251303   -0.602908
     10          6           0       -2.005443    1.533904    0.535475
     11          6           0       -1.122725    1.347634    1.477864
     12          8           0        0.206562    0.993154    1.239092
     13          6           0        0.695690    0.949450   -0.052211
     14          8           0        0.668126    1.889046   -0.794587
     15          1           0        4.755397    0.305297    0.009826
     16          1           0        3.700625   -0.492260    1.190681
     17          1           0        3.414167    1.194755    0.740669
     18          1           0        3.145935   -1.214892   -1.171409
     19          1           0        2.870019    0.469929   -1.613339
     20          1           0        1.238456   -2.428018   -0.633268
     21          1           0       -0.617333   -2.555685    1.897537
     22          1           0       -0.692324   -3.758036    0.606861
     23          1           0       -2.162546   -2.882270    1.079845
     24          1           0       -3.112656   -0.341827   -2.054447
     25          1           0       -3.013890    2.019300   -1.249416
     26          1           0       -1.308061    1.369687    2.544433
 ---------------------------------------------------------------------

 SCF Done:  E(RB3LYP) =  -614.843337247     A.U. after    1 cycles

 The electronic state is 1-A.
 Alpha  occ. eigenvalues --  -19.18471 -19.13724 -10.31477 -10.24782 -10.21264
 Alpha  occ. eigenvalues --  -10.20898 -10.20797 -10.20490 -10.20380 -10.19850
 Alpha  occ. eigenvalues --  -10.19487 -10.19352 -10.18064 -10.17689  -1.10054
 Alpha  occ. eigenvalues --   -1.02572  -0.84502  -0.82261  -0.79108  -0.75202
 Alpha  occ. eigenvalues --   -0.73559  -0.69971  -0.65694  -0.64627  -0.61812
 Alpha  occ. eigenvalues --   -0.57856  -0.53834  -0.50377  -0.49595  -0.47275
 Alpha  occ. eigenvalues --   -0.46878  -0.45476  -0.44292  -0.43508  -0.43283
 Alpha  occ. eigenvalues --   -0.42161  -0.41204  -0.40707  -0.39425  -0.38086
 Alpha  occ. eigenvalues --   -0.37629  -0.35655  -0.34901  -0.34734  -0.31830
 Alpha  occ. eigenvalues --   -0.29050  -0.27542  -0.24167  -0.23327  -0.22434
 Alpha virt. eigenvalues --   -0.04826  -0.03588   0.00252   0.02439   0.05094
 Alpha virt. eigenvalues --    0.07704   0.10158   0.11434   0.13037   0.13931
 Alpha virt. eigenvalues --    0.14794   0.15457   0.15543   0.16264   0.16791

 Mulliken charges:
               1
     1  C   -0.380442
     2  C   -0.275145
     3  C    0.198780
     4  C   -0.205945
     5  C   -0.018790
     6  C   -0.468752
     7  C    0.324798
     8  C   -0.317266
     9  C   -0.204823
    10  C    0.132632
    11  C   -0.087165
    12  O   -0.237638
    13  C    0.370219
    14  O   -0.320308
    15  H    0.118572
    16  H    0.120918
    17  H    0.134194
    18  H    0.104138
    19  H    0.133956
    20  H    0.097201
    21  H    0.139493
    22  H    0.130701
    23  H    0.135183
    24  H    0.119381
    25  H    0.123331
    26  H    0.132776
 Sum of Mulliken charges =  -0.00000

 Dipole moment (field-independent basis, Debye):
    X=              0.1250    Y=             -2.6671    Z=              0.4359  Tot=              2.7054
 Quadrupole moment (field-independent basis, Debye-Ang):
   XX=            -74.9616   YY=            -81.8845   ZZ=            -78.7454
   XY=             -2.0902   XZ=              1.1989   YZ=              0.9564

  Exact polarizability: 154.698  -8.706 134.019  12.892  -2.910 109.473
 Approx polarizability: 228.028 -18.317 223.164  39.674 -10.157 195.304

                      1                      2                      3
                      A                      A                      A
 Frequencies --     46.7906                57.7303                95.1321
 Red. masses --      5.3867                 2.5669                 3.3616
 Frc consts  --      0.0069                 0.0050                 0.0179
 IR Inten    --      1.1428                 0.1095                 1.0071

                      4                      5                      6
                      A                      A                      A
 Frequencies --    113.9568               129.0972               159.7392
 Red. masses --      5.5092                 3.7361                 3.9729
 Frc consts  --      0.0422                 0.0367                 0.0597
 IR Inten    --      1.1968                 0.1648                 0.1896

                      7                      8                      9
                      A                      A                      A
 Frequencies --    175.7526               181.0675               197.7085
 Red. masses --      1.1571                 3.6191                 1.4672
 Frc consts  --      0.0211                 0.0699                 0.0338
 IR Inten    --      0.6969                 1.9621                 0.7841

                     10                     11                     12
                      A                      A                      A
 Frequencies --    226.0116               256.1174               270.5339
 Red. masses --      2.9210                 3.7272                 3.1762
 Frc consts  --      0.0879                 0.1441                 0.1370
 IR Inten    --      0.5183                 0.7033                 0.9382

                     13                     14                     15
                      A                      A                      A
 Frequencies --    323.2162               359.0593               383.5696
 Red. masses --      2.9839                 4.1554                 3.3550
 Frc consts  --      0.1837                 0.3156                 0.2908
 IR Inten    --      1.1989                 3.0756                 3.2757

                     16                     17                     18
                      A                      A                      A
 Frequencies --    407.1639               473.4653               521.6036
 Red. masses --      3.2126                 5.7517                 4.6360
 Frc consts  --      0.3138                 0.7597                 0.7431
 IR Inten    --      1.1959                 9.3190                11.1818

                     19                     20                     21
                      A                      A                      A
 Frequencies --    547.9975               611.5935               622.9579
 Red. masses --      4.6518                 4.0669                 4.9859
 Frc consts  --      0.8231                 0.8963                 1.1400
 IR Inten    --     16.4114                 5.3489                17.8763

                     22                     23                     24
                      A                      A                      A
 Frequencies --    674.6773               717.8419               753.1873
 Red. masses --      6.0918                 4.4369                 3.2974
 Frc consts  --      1.6338                 1.3471                 1.1021
 IR Inten    --     12.2495                13.9078                11.8379

                     25                     26                     27
                      A                      A                      A
 Frequencies --    791.2400               795.7578               816.2416
 Red. masses --      2.6984                 1.5074                 1.9459
 Frc consts  --      0.9953                 0.5624                 0.7638
 IR Inten    --      7.7853                42.6651                 2.4408

                     28                     29                     30
                      A                      A                      A
 Frequencies --    837.1394               849.7871               895.8266
 Red. masses --      2.8552                 1.9644                 1.4588
 Frc consts  --      1.1789                 0.8358                 0.6898
 IR Inten    --      4.4215                18.3311                 6.1647

                     31                     32                     33
                      A                      A                      A
 Frequencies --    901.6625               940.6264               942.6121
 Red. masses --      1.5132                 2.5162                 2.5708
 Frc consts  --      0.7248                 1.3117                 1.3458
 IR Inten    --      1.6444                 8.0400                18.0004

                     34                     35                     36
                      A                      A                      A
 Frequencies --    996.3741              1017.8716              1052.9828
 Red. masses --      1.7630                 3.9303                 1.5175
 Frc consts  --      1.0312                 2.3992                 0.9913
 IR Inten    --     17.7880                38.1773                10.2598

                     37                     38                     39
                      A                      A                      A
 Frequencies --   1058.0141              1090.2487              1103.0894
 Red. masses --      2.8099                 1.8572                 1.8992
 Frc consts  --      1.8532                 1.3007                 1.3616
 IR Inten    --    115.7133                19.7746                31.5694

                     40                     41                     42
                      A                      A                      A
 Frequencies --   1159.0694              1182.1013              1207.6636
 Red. masses --      2.3346                 1.9021                 3.4534
 Frc consts  --      1.8479                 1.5660                 2.9675
 IR Inten    --     14.7460                54.6793                28.4553

                     43                     44                     45
                      A                      A                      A
 Frequencies --   1242.3609              1281.5645              1324.0587
 Red. masses --      1.5094                 1.2028                 1.3606
 Frc consts  --      1.3726                 1.1639                 1.4054
 IR Inten    --      4.0924                 0.8313                27.3679

                     46                     47                     48
                      A                      A                      A
 Frequencies --   1343.2233              1379.5218              1399.9236
 Red. masses --      1.5451                 1.5791                 1.2999
 Frc consts  --      1.6425                 1.7706                 1.5010
 IR Inten    --     24.4379                18.7244                 3.0122

                     49                     50                     51
                      A                      A                      A
 Frequencies --   1408.7308              1411.0665              1451.1234
 Red. masses --      2.4383                 1.2246                 2.1273
 Frc consts  --      2.8510                 1.4366                 2.6393
 IR Inten    --     25.1260                 2.7884                11.4870

                     52                     53                     54
                      A                      A                      A
 Frequencies --   1473.3771              1480.0873              1494.7597
 Red. masses --      1.0757                 1.0466                 1.1339
 Frc consts  --      1.3758                 1.3508                 1.4927
 IR Inten    --      4.7358                 6.3287                 4.3794

                     55                     56                     57
                      A                      A                      A
 Frequencies --   1498.9306              1502.2916              1681.2929
 Red. masses --      1.0390                 1.0598                 8.5757
 Frc consts  --      1.3754                 1.4092                14.2825
 IR Inten    --      6.8687                 2.5468                 2.3343

                     58                     59                     60
                      A                      A                      A
 Frequencies --   1823.7007              1986.8610              2028.2237
 Red. masses --     12.8714                10.3578                10.6626
 Frc consts  --     25.2223                24.0908                25.8431
 IR Inten    --    191.1558                17.4642                27.2357

                     61                     62                     63
                      A                      A                      A
 Frequencies --   3026.1035              3033.3923              3038.1422
 Red. masses --      1.0375                 1.0589                 1.0359
 Frc consts  --      5.5974                 5.7408                 5.6334
 IR Inten    --     28.1241                11.5023                26.3645

                     64                     65                     66
                      A                      A                      A
 Frequencies --   3077.3123              3082.4586              3110.4885
 Red. masses --      1.1012                 1.0995                 1.0947
 Frc consts  --      6.1440                 6.1554                 6.2402
 IR Inten    --      4.2364                12.4737                 0.1310

                     67                     68                     69
                      A                      A                      A
 Frequencies --   3112.0542              3113.0306              3135.0157
 Red. masses --      1.0946                 1.1017                 1.0999
 Frc consts  --      6.2461                 6.2905                 6.3694
 IR Inten    --     60.4648                28.9723                12.9491

                     70                     71                     72
                      A                      A                      A
 Frequencies --   3141.5464              3153.9295              3204.8177
 Red. masses --      1.0862                 1.0911                 1.0919
 Frc consts  --      6.3160                 6.3945                 6.6074
 IR Inten    --      6.3127                22.9955                 9.7890

 - Thermochemistry -
 -------------------
 Temperature   298.150 Kelvin.  Pressure   1.00000 Atm.
 Atom     1 has atomic number  6 and mass  12.00000

 Molecular mass:   188.08373 amu.
 Principal axes and moments of inertia in atomic units:
                           1         2         3
     Eigenvalues --  1803.732792891.662473717.89502
           X            0.99999   0.00488   0.00149
           Y           -0.00484   0.99964  -0.02630
           Z           -0.00162   0.02630   0.99965
 This molecule is an asymmetric top.
 Rotational symmetry number  1.
 Warning -- assumption of classical behavior for rotation
           may cause significant error
 Rotational temperatures (Kelvin)      0.04802     0.02995     0.02330
 Rotational constants (GHZ):           1.00056     0.62412     0.48542
 Zero-point vibrational energy     540614.4 (Joules/Mol)
                                  129.20994 (Kcal/Mol)
 Warning -- explicit consideration of  20 degrees of freedom as
           vibrations may cause significant error
 Vibrational temperatures:     67.32    83.06   136.87   163.96   185.74
          (Kelvin)            229.83   252.87   260.52   284.46   325.18
                              368.50   389.24   465.04   516.61   551.87
                              585.82   681.21   750.47   788.45   879.95
                              896.30   970.71  1032.81  1083.67  1138.42
                             1144.92  1174.39  1204.46  1222.65  1288.89
                             1297.29  1353.35  1356.21  1433.56  1464.49
                             1515.01  1522.25  1568.62  1587.10  1667.64
                             1700.78  1737.56  1787.48  1843.89  1905.03
                             1932.60  1984.82  2014.18  2026.85  2030.21
                             2087.84  2119.86  2129.52  2150.63  2156.63
                             2161.46  2419.01  2623.90  2858.65  2918.16
                             4353.89  4364.37  4371.21  4427.57  4434.97
                             4475.30  4477.55  4478.96  4510.59  4519.98
                             4537.80  4611.02

 Zero-point correction=                           0.205909 (Hartree/Particle)
 Thermal correction to Energy=                    0.219929
 Thermal correction to Enthalpy=                  0.220873
 Thermal correction to Gibbs Free Energy=         0.165259
 Sum of electronic and zero-point Energies=           -614.637428
 Sum of electronic and thermal Energies=              -614.623408
 Sum of electronic and thermal Enthalpies=            -614.622464
 Sum of electronic and thermal Free Energies=         -614.678078

                     E (Thermal)             CV                S
                      KCal/Mol        Cal/Mol-Kelvin    Cal/Mol-Kelvin
 Total                  138.007             51.870            117.050
 Electronic               0.000              0.000              0.000
 Translational            0.889              2.981             41.601
 Rotational               0.889              2.981             31.339
 Vibrational            136.230             45.909             44.109
 Vibration     1          0.595              1.979              4.949
 Vibration     2          0.596              1.974              4.533
 Vibration     3          0.603              1.953              3.552
 Vibration     4          0.607              1.938              3.200
 Vibration     5          0.612              1.924              2.959
 Vibration     6          0.622              1.892              2.553
 Vibration     7          0.628              1.872              2.373
 Vibration     8          0.630              1.865              2.317
 Vibration     9          0.637              1.843              2.154
 Vibration    10          0.650              1.801              1.910
 Vibration    11          0.666              1.752              1.688
 Vibration    12          0.674              1.727              1.593
 Vibration    13          0.708              1.629              1.294
 Vibration    14          0.734              1.557              1.126
 Vibration    15          0.753              1.505              1.025
 Vibration    16          0.772              1.455              0.937
 Vibration    17          0.830              1.309              0.728
 Vibration    18          0.877              1.202              0.606
 Vibration    19          0.903              1.144              0.548
 Vibration    20          0.971              1.007              0.430

                           ! Non-Optimized Parameters !
 Normal termination of Gaussian 16 at Thu May 18 19:20:59 2023.
