 Gaussian 16, Revision A.03,
 Gaussian 16:  ES64L-G16RevA.03 25-Dec-2016

 -----------------------------
 # opt freq b3lyp/6-31g(2df,p)
 -----------------------------

 -------------------
 Title Card Required
 -------------------
 Symbolic Z-matrix:
 Charge =  0 Multiplicity = 1

 SCF Done:  E(RB3LYP) =  -655.016720630     A.U. after   35 cycles
 SCF Done:  E(RB3LYP) =  -655.313158415     A.U. after   31 cycles
 SCF Done:  E(RB3LYP) =  -655.699344240     A.U. after   24 cycles
 SCF Done:  E(RB3LYP) =  -655.953216692     A.U. after   31 cycles
 SCF Done:  E(RB3LYP) =  -656.167848298     A.U. after   45 cycles
 SCF Done:  E(RB3LYP) =  -656.338111664     A.U. after   35 cycles
 SCF Done:  E(RB3LYP) =  -656.513640666     A.U. after   23 cycles
 SCF Done:  E(RB3LYP) =  -656.682244638     A.U. after   27 cycles
 SCF Done:  E(RB3LYP) =  -656.760732114     A.U. after   23 cycles
 SCF Done:  E(RB3LYP) =  -656.840234841     A.U. after   25 cycles
 SCF Done:  E(RB3LYP) =  -657.463681354     A.U. after    8 cycles
 SCF Done:  E(RB3LYP) =  -657.463683323     A.U. after    9 cycles
 SCF Done:  E(RB3LYP) =  -657.463684960     A.U. after    9 cycles
 SCF Done:  E(RB3LYP) =  -657.463686237     A.U. after    9 cycles
 SCF Done:  E(RB3LYP) =  -657.463686905     A.U. after    9 cycles
 SCF Done:  E(RB3LYP) =  -657.463687087     A.U. after    8 cycles
 SCF Done:  E(RB3LYP) =  -657.463687241     A.U. after    8 cycles
 SCF Done:  E(RB3LYP) =  -657.463687384     A.U. after    8 cycles
 SCF Done:  E(RB3LYP) =  -657.463687555     A.U. after    8 cycles
 Optimization completed.
    -- Stationary point found.

 The electronic state is 1-A.
 Alpha  occ. eigenvalues --  -19.11415 -10.22457 -10.21555 -10.21117 -10.20800
 Alpha  occ. eigenvalues --  -10.20429 -10.20396 -10.20010 -10.19893 -10.19858
 Alpha  occ. eigenvalues --  -10.19808 -10.19412 -10.19008 -10.18982 -10.17914
 Alpha  occ. eigenvalues --  -10.16904  -0.99941  -0.88878  -0.84895  -0.82159
 Alpha  occ. eigenvalues --   -0.79163  -0.74543  -0.73148  -0.70570  -0.67979
 Alpha  occ. eigenvalues --   -0.64844  -0.61715  -0.60694  -0.54830  -0.54493
 Alpha  occ. eigenvalues --   -0.53371  -0.51849  -0.50553  -0.47681  -0.47114
 Alpha  occ. eigenvalues --   -0.45794  -0.45289  -0.44994  -0.44408  -0.42889
 Alpha  occ. eigenvalues --   -0.42175  -0.41242  -0.39774  -0.39133  -0.36901
 Alpha  occ. eigenvalues --   -0.36749  -0.36053  -0.35894  -0.35504  -0.34315
 Alpha  occ. eigenvalues --   -0.32432  -0.31764  -0.28608  -0.27528  -0.25995
 Alpha  occ. eigenvalues --   -0.24943  -0.23775  -0.15204
 Alpha virt. eigenvalues --   -0.11432  -0.02367   0.02113   0.04784   0.08930
 Alpha virt. eigenvalues --    0.09684   0.10544   0.10844   0.11922   0.12456
 Alpha virt. eigenvalues --    0.13551   0.13948   0.14455   0.14897   0.15428

 Mulliken charges:
               1
     1  C   -0.383412
     2  C   -0.196025
     3  C    0.387904
     4  C   -0.280864
     5  C   -0.347586
     6  C   -0.186471
     7  C    0.352816
     8  C   -0.361330
     9  C    0.426535
    10  C   -0.140057
    11  C   -0.045159
    12  C   -0.328600
    13  C   -0.082342
    14  O   -0.412824
    15  C   -0.176411
    16  C   -0.386340
    17  H    0.113525
    18  H    0.122292
    19  H    0.125380
    20  H    0.114471
    21  H    0.115024
    22  H    0.115251
    23  H    0.107118
    24  H    0.094638
    25  H    0.145769
    26  H    0.107980
    27  H    0.136108
    28  H    0.095837
    29  H    0.061761
    30  H    0.099817
    31  H    0.085567
    32  H    0.271644
    33  H    0.100497
    34  H    0.147487
 Sum of Mulliken charges =  -0.00000

 Dipole moment (field-independent basis, Debye):
    X=              4.9709    Y=             -2.3820    Z=              0.1290  Tot=              5.5137
 Quadrupole moment (field-independent basis, Debye-Ang):
   XX=           -108.9918   YY=            -91.9712   ZZ=            -96.9681
   XY=             10.9727   XZ=             -1.5618   YZ=             -1.4488

 Normal termination of Gaussian 16 at Sat May 20 08:34:28 2023.

 ----------------------------------------------------------------------
 #N Geom=AllCheck Guess=TCheck SCRF=Check GenChk RB3LYP/6-31G(2df,p) Fr
 eq
 ----------------------------------------------------------------------

 Structure from the checkpoint file:  "CCC1dCCdCCdCCdCCdCqCOrCdC1.chk"
 -------------------
 Title Card Required
 -------------------
 Charge =  0 Multiplicity = 1

                         Standard orientation:
 ---------------------------------------------------------------------
 Center     Atomic      Atomic             Coordinates (Angstroms)
 Number     Number       Type             X           Y           Z
 ---------------------------------------------------------------------
      1          6           0        5.914987    0.822457    1.391115
      2          6           0        6.426142    0.550011   -0.022442
      3          6           0        4.179277   -0.376207   -0.665158
      4          6           0        5.408079   -0.070060   -0.959089
      5          6           0        2.926950   -0.691862   -0.374529
      6          6           0        1.803688    0.187182   -0.529546
      7          6           0        0.499994   -0.129257   -0.235033
      8          6           0       -0.632506    0.693012   -0.399510
      9          6           0       -1.817324    0.020991    0.000242
     10          6           0       -3.188109    0.532132    0.065306
     11          6           0       -4.344073   -0.488757    0.120793
     12          6           0       -3.924946    0.224153    1.322519
     13          6           0       -5.655877   -0.099184   -0.558970
     14          8           0       -5.990226    1.252650   -0.338314
     15          6           0       -1.473306   -1.243734    0.429176
     16          6           0        0.000093   -1.456159    0.310487
     17          1           0        6.701092    1.268286    2.007264
     18          1           0        5.585633   -0.101591    1.875925
     19          1           0        5.063016    1.508912    1.376987
     20          1           0        7.302620   -0.111640    0.013828
     21          1           0        6.786364    1.481717   -0.479994
     22          1           0        5.764822   -0.269801   -1.972461
     23          1           0        2.734206   -1.693569    0.010126
     24          1           0        2.009520    1.180315   -0.919846
     25          1           0        0.241789   -2.303634   -0.345848
     26          1           0       -0.603038    1.706034   -0.781371
     27          1           0       -2.158850   -1.987477    0.810288
     28          1           0       -3.397067    1.452039   -0.479855
     29          1           0       -4.082025   -1.541392   -0.035932
     30          1           0       -5.591798   -0.244215   -1.644263
     31          1           0       -6.443572   -0.775538   -0.182603
     32          1           0       -5.715113    1.432630    0.575671
     33          1           0       -3.454836   -0.169041    2.219061
     34          1           0        0.440636   -1.701532    1.287368
 ---------------------------------------------------------------------

 SCF Done:  E(RB3LYP) =  -657.463687555     A.U. after    1 cycles
