 Gaussian 16, Revision A.03,
 Gaussian 16:  ES64L-G16RevA.03 25-Dec-2016

 -----------------------------
 # opt freq b3lyp/6-31g(2df,p)
 -----------------------------

 -------------------
 Title Card Required
 -------------------
 Symbolic Z-matrix:
 Charge =  0 Multiplicity = 1

 SCF Done:  E(RB3LYP) =  -824.172277804     A.U. after   18 cycles
 SCF Done:  E(RB3LYP) =  -824.233448577     A.U. after   15 cycles
 SCF Done:  E(RB3LYP) =  -824.305431105     A.U. after   15 cycles
 SCF Done:  E(RB3LYP) =  -824.358844293     A.U. after   16 cycles
 SCF Done:  E(RB3LYP) =  -824.384190121     A.U. after   15 cycles
 SCF Done:  E(RB3LYP) =  -824.408727188     A.U. after   15 cycles
 SCF Done:  E(RB3LYP) =  -824.429787549     A.U. after   16 cycles
 SCF Done:  E(RB3LYP) =  -824.448602533     A.U. after   13 cycles
 SCF Done:  E(RB3LYP) =  -824.469477821     A.U. after   14 cycles
 SCF Done:  E(RB3LYP) =  -824.481224974     A.U. after   13 cycles
 SCF Done:  E(RB3LYP) =  -824.483096838     A.U. after   12 cycles
 SCF Done:  E(RB3LYP) =  -824.484267799     A.U. after   12 cycles
 SCF Done:  E(RB3LYP) =  -824.484858006     A.U. after   11 cycles
 SCF Done:  E(RB3LYP) =  -824.485215898     A.U. after   12 cycles
 SCF Done:  E(RB3LYP) =  -824.485272139     A.U. after    9 cycles
 SCF Done:  E(RB3LYP) =  -824.485287215     A.U. after    9 cycles
 SCF Done:  E(RB3LYP) =  -824.485288708     A.U. after    7 cycles
 SCF Done:  E(RB3LYP) =  -824.485289131     A.U. after    7 cycles
 Optimization completed.
    -- Stationary point found.
 Normal termination of Gaussian 16 at Thu May 18 02:19:51 2023.

 ----------------------------------------------------------------------
 #N Geom=AllCheck Guess=TCheck SCRF=Check GenChk RB3LYP/6-31G(2df,p) Fr
 eq
 ----------------------------------------------------------------------

 Structure from the checkpoint file:  "CCC1dCCdCqSrC2dCCdC1C2.chk"
 -------------------
 Title Card Required
 -------------------
 Charge =  0 Multiplicity = 1

                         Standard orientation:
 ---------------------------------------------------------------------
 Center     Atomic      Atomic             Coordinates (Angstroms)
 Number     Number       Type             X           Y           Z
 ---------------------------------------------------------------------
      1          6           0       -3.806813   -0.216226    0.442410
      2          6           0       -2.824941   -0.672972   -0.650786
      3          6           0       -1.380727   -0.623018   -0.227636
      4          6           0       -0.583300   -1.714618   -0.170156
      5          6           0        0.860352   -1.655022   -0.000802
      6          6           0        1.527625   -0.479734    0.083077
      7         16           0        3.286660   -0.287863   -0.022490
      8          6           0        0.771980    0.765681    0.265360
      9          6           0        0.685118    2.006893   -0.616960
     10          6           0       -0.648371    1.942437   -0.745494
     11          6           0       -0.782546    0.681192    0.108648
     12          6           0       -0.147764    0.955868    1.458985
     13          1           0       -4.838309   -0.246995    0.077646
     14          1           0       -3.594194    0.808046    0.764562
     15          1           0       -3.737671   -0.862200    1.323393
     16          1           0       -2.960228   -0.031779   -1.534188
     17          1           0       -3.072178   -1.691424   -0.969556
     18          1           0       -1.013730   -2.695594   -0.354859
     19          1           0        1.410515   -2.589565   -0.053088
     20          1           0        3.566366   -1.487547   -0.565912
     21          1           0        1.429158    2.742818   -0.895778
     22          1           0       -1.389095    2.614610   -1.162188
     23          1           0       -0.173451    0.145692    2.182328
     24          1           0       -0.237409    1.956865    1.867610
 ---------------------------------------------------------------------

 SCF Done:  E(RB3LYP) =  -824.485289131     A.U. after    1 cycles

 The electronic state is 1-A.
 Alpha  occ. eigenvalues --  -88.88157 -10.21818 -10.20926 -10.20700 -10.20078
 Alpha  occ. eigenvalues --  -10.19523 -10.19418 -10.18719 -10.18533 -10.18060
 Alpha  occ. eigenvalues --  -10.17715 -10.17502  -7.94659  -5.91116  -5.90731
 Alpha  occ. eigenvalues --   -5.90238  -0.92436  -0.81998  -0.79934  -0.74962
 Alpha  occ. eigenvalues --   -0.73375  -0.69521  -0.64045  -0.62585  -0.60918
 Alpha  occ. eigenvalues --   -0.56241  -0.54376  -0.49078  -0.48290  -0.46041
 Alpha  occ. eigenvalues --   -0.44255  -0.43774  -0.42585  -0.41695  -0.40829
 Alpha  occ. eigenvalues --   -0.37613  -0.36909  -0.35917  -0.35216  -0.34110
 Alpha  occ. eigenvalues --   -0.33433  -0.32654  -0.32231  -0.28518  -0.26281
 Alpha  occ. eigenvalues --   -0.22146  -0.18872
 Alpha virt. eigenvalues --   -0.02474  -0.00587   0.02696   0.05785   0.08962
 Alpha virt. eigenvalues --    0.09981   0.11566   0.12864   0.13296   0.14371
 Alpha virt. eigenvalues --    0.14950   0.15474   0.16092   0.16678   0.17668

 Mulliken charges:
               1
     1  C   -0.371415
     2  C   -0.284094
     3  C    0.200318
     4  C   -0.185762
     5  C   -0.178796
     6  C    0.102836
     7  S   -0.245734
     8  C    0.131709
     9  C   -0.165788
    10  C   -0.175845
    11  C    0.156187
    12  C   -0.334913
    13  H    0.111645
    14  H    0.120526
    15  H    0.118857
    16  H    0.105144
    17  H    0.101387
    18  H    0.083073
    19  H    0.085623
    20  H    0.157381
    21  H    0.114388
    22  H    0.106851
    23  H    0.126794
    24  H    0.119627
 Sum of Mulliken charges =  -0.00000

 Dipole moment (field-independent basis, Debye):
    X=             -1.1725    Y=             -0.1388    Z=             -0.1865  Tot=              1.1954
 Quadrupole moment (field-independent basis, Debye-Ang):
   XX=            -78.0435   YY=            -72.4788   ZZ=            -79.7842
   XY=             -2.7824   XZ=             -0.8706   YZ=              0.8543

  Exact polarizability: 178.898  -0.978 127.232   2.160   0.004  87.790
 Approx polarizability: 281.392   2.280 209.031   7.991   1.997 143.591

                      1                      2                      3
                      A                      A                      A
 Frequencies --     50.4684                74.7427               137.1445
 Red. masses --      3.4555                 3.1144                 3.7533
 Frc consts  --      0.0052                 0.0103                 0.0416
 IR Inten    --      0.1841                 0.3384                 0.1216

                      4                      5                      6
                      A                      A                      A
 Frequencies --    177.9689               193.3291               209.1652
 Red. masses --      2.1400                 2.9131                 1.4549
 Frc consts  --      0.0399                 0.0642                 0.0375
 IR Inten    --      1.0351                 2.2237                17.6471

                      7                      8                      9
                      A                      A                      A
 Frequencies --    237.2124               245.3710               306.5784
 Red. masses --      1.6603                 1.9847                 2.9151
 Frc consts  --      0.0550                 0.0704                 0.1614
 IR Inten    --      1.4623                 2.7714                 2.8646

                     10                     11                     12
                      A                      A                      A
 Frequencies --    352.4625               401.7537               414.3853
 Red. masses --      3.9844                 3.7770                 2.4853
 Frc consts  --      0.2916                 0.3592                 0.2514
 IR Inten    --      0.3913                 0.8350                 0.3153

                     13                     14                     15
                      A                      A                      A
 Frequencies --    441.3488               536.2966               556.4545
 Red. masses --      3.0446                 3.5374                 3.4419
 Frc consts  --      0.3494                 0.5994                 0.6279
 IR Inten    --      0.4841                 0.9954                 7.4708

                     16                     17                     18
                      A                      A                      A
 Frequencies --    602.7242               612.3564               649.7073
 Red. masses --      3.9019                 4.5240                 3.4486
 Frc consts  --      0.8352                 0.9995                 0.8577
 IR Inten    --      7.1041                 7.0568                 3.4090

                     19                     20                     21
                      A                      A                      A
 Frequencies --    693.6437               748.9782               769.8978
 Red. masses --      3.7924                 4.8714                 1.6348
 Frc consts  --      1.0751                 1.6101                 0.5709
 IR Inten    --      3.0078                 3.4085                37.2029

                     22                     23                     24
                      A                      A                      A
 Frequencies --    788.4514               847.0671               853.3384
 Red. masses --      1.2237                 2.5441                 1.5053
 Frc consts  --      0.4482                 1.0755                 0.6458
 IR Inten    --      0.2539                10.6584                21.0418

                     25                     26                     27
                      A                      A                      A
 Frequencies --    899.0355               905.2252               916.4297
 Red. masses --      1.5309                 1.8556                 1.5429
 Frc consts  --      0.7291                 0.8959                 0.7635
 IR Inten    --      7.5768                 5.0757                 5.5153

                     28                     29                     30
                      A                      A                      A
 Frequencies --    936.5877               950.1190               969.2137
 Red. masses --      1.4399                 1.6065                 1.8829
 Frc consts  --      0.7442                 0.8544                 1.0421
 IR Inten    --      0.8305                 2.5615                 8.7425

                     31                     32                     33
                      A                      A                      A
 Frequencies --    994.9272              1022.0561              1056.3188
 Red. masses --      2.7684                 1.9657                 2.2638
 Frc consts  --      1.6146                 1.2098                 1.4883
 IR Inten    --      7.7059                 9.7571                 9.2994

                     34                     35                     36
                      A                      A                      A
 Frequencies --   1079.6981              1087.7068              1095.7019
 Red. masses --      1.8698                 1.3842                 1.3395
 Frc consts  --      1.2843                 0.9649                 0.9475
 IR Inten    --      3.5699                17.3843                 2.8781

                     37                     38                     39
                      A                      A                      A
 Frequencies --   1114.5206              1159.2323              1208.9140
 Red. masses --      1.5561                 2.3286                 5.1617
 Frc consts  --      1.1389                 1.8437                 4.4446
 IR Inten    --     10.7619                 0.2858                 1.5838

                     40                     41                     42
                      A                      A                      A
 Frequencies --   1235.5065              1275.9472              1293.6479
 Red. masses --      1.8811                 1.2788                 1.7784
 Frc consts  --      1.6918                 1.2267                 1.7535
 IR Inten    --     32.5002                 2.8785                 6.3992

                     43                     44                     45
                      A                      A                      A
 Frequencies --   1302.0616              1353.2298              1393.9423
 Red. masses --      1.6766                 1.6194                 2.2354
 Frc consts  --      1.6747                 1.7472                 2.5591
 IR Inten    --      0.4527                 8.4611                15.7126

                     46                     47                     48
                      A                      A                      A
 Frequencies --   1404.6269              1427.6315              1462.5639
 Red. masses --      1.2522                 2.6715                 1.2056
 Frc consts  --      1.4556                 3.2081                 1.5194
 IR Inten    --      1.4171                 1.9133                 2.0183

                     49                     50                     51
                      A                      A                      A
 Frequencies --   1475.3837              1495.7888              1505.5965
 Red. masses --      1.0769                 1.0410                 1.0635
 Frc consts  --      1.3811                 1.3722                 1.4203
 IR Inten    --      2.5890                 4.9558                 2.1456

                     52                     53                     54
                      A                      A                      A
 Frequencies --   1576.6575              1602.7948              1662.4488
 Red. masses --      8.7640                 5.9557                 6.1969
 Frc consts  --     12.8359                 9.0145                10.0907
 IR Inten    --     24.7951                 2.7757                10.3748

                     55                     56                     57
                      A                      A                      A
 Frequencies --   2672.8177              3000.4608              3034.5994
 Red. masses --      1.0384                 1.0669                 1.0344
 Frc consts  --      4.3708                 5.6591                 5.6121
 IR Inten    --      3.4750                27.9014                33.1807

                     58                     59                     60
                      A                      A                      A
 Frequencies --   3061.8616              3105.9772              3108.0473
 Red. masses --      1.0935                 1.1018                 1.1021
 Frc consts  --      6.0401                 6.2626                 6.2725
 IR Inten    --     14.0424                39.0036                32.3212

                     61                     62                     63
                      A                      A                      A
 Frequencies --   3116.9717              3153.0171              3173.0773
 Red. masses --      1.0531                 1.0869                 1.0912
 Frc consts  --      6.0284                 6.3665                 6.4729
 IR Inten    --     16.1729                24.9143                19.6459

                     64                     65                     66
                      A                      A                      A
 Frequencies --   3185.3931              3215.8652              3217.3764
 Red. masses --      1.0842                 1.1182                 1.1132
 Frc consts  --      6.4814                 6.8136                 6.7896
 IR Inten    --      6.2943                 4.7343                26.4821

 - Thermochemistry -
 -------------------
 Temperature   298.150 Kelvin.  Pressure   1.00000 Atm.
 Atom     1 has atomic number  6 and mass  12.00000

 Molecular mass:   176.06597 amu.
 Principal axes and moments of inertia in atomic units:
                           1         2         3
     Eigenvalues --  1082.980443053.229493687.27725
           X            0.99999   0.00087  -0.00384
           Y           -0.00084   0.99996   0.00868
           Z            0.00385  -0.00867   0.99995
 This molecule is an asymmetric top.
 Rotational symmetry number  1.
 Warning -- assumption of classical behavior for rotation
           may cause significant error
 Rotational temperatures (Kelvin)      0.07998     0.02837     0.02349
 Rotational constants (GHZ):           1.66646     0.59109     0.48945
 Zero-point vibrational energy     507275.4 (Joules/Mol)
                                  121.24173 (Kcal/Mol)
 Warning -- explicit consideration of  17 degrees of freedom as
           vibrations may cause significant error
 Vibrational temperatures:     72.61   107.54   197.32   256.06   278.16
          (Kelvin)            300.94   341.30   353.03   441.10   507.11
                              578.03   596.21   635.00   771.61   800.61
                              867.19   881.04   934.78   998.00  1077.61
                             1107.71  1134.41  1218.74  1227.76  1293.51
                             1302.42  1318.54  1347.54  1367.01  1394.48
                             1431.48  1470.51  1519.81  1553.44  1564.97
                             1576.47  1603.55  1667.88  1739.36  1777.62
                             1835.80  1861.27  1873.38  1947.00  2005.57
                             2020.94  2054.04  2104.30  2122.75  2152.11
                             2166.22  2268.46  2306.06  2391.89  3845.59
                             4316.99  4366.11  4405.34  4468.81  4471.79
                             4484.63  4536.49  4565.35  4583.07  4626.91
                             4629.09

 Zero-point correction=                           0.193211 (Hartree/Particle)
 Thermal correction to Energy=                    0.204664
 Thermal correction to Enthalpy=                  0.205608
 Thermal correction to Gibbs Free Energy=         0.155871
 Sum of electronic and zero-point Energies=           -824.292078
 Sum of electronic and thermal Energies=              -824.280625
 Sum of electronic and thermal Enthalpies=            -824.279681
 Sum of electronic and thermal Free Energies=         -824.329418

                     E (Thermal)             CV                S
                      KCal/Mol        Cal/Mol-Kelvin    Cal/Mol-Kelvin
 Total                  128.429             44.731            104.681
 Electronic               0.000              0.000              0.000
 Translational            0.889              2.981             41.404
 Rotational               0.889              2.981             30.878
 Vibrational            126.651             38.769             32.399
 Vibration     1          0.595              1.977              4.799
 Vibration     2          0.599              1.966              4.024
 Vibration     3          0.614              1.916              2.843
 Vibration     4          0.628              1.869              2.350
 Vibration     5          0.635              1.849              2.196
 Vibration     6          0.642              1.827              2.051
 Vibration     7          0.656              1.784              1.824
 Vibration     8          0.660              1.770              1.764
 Vibration     9          0.697              1.661              1.381
 Vibration    10          0.729              1.570              1.155
 Vibration    11          0.767              1.466              0.956
 Vibration    12          0.778              1.439              0.911
 Vibration    13          0.801              1.380              0.822
 Vibration    14          0.891              1.170              0.573
 Vibration    15          0.912              1.126              0.531
 Vibration    16          0.961              1.026              0.445
 Vibration    17          0.972              1.006              0.429

 Optimization completed.
    -- Stationary point found.
 Normal termination of Gaussian 16 at Thu May 18 03:29:04 2023.
