 Gaussian 16, Revision A.03,
 Gaussian 16:  ES64L-G16RevA.03 25-Dec-2016

 -----------------------------
 # opt freq b3lyp/6-31g(2df,p)
 -----------------------------

 -------------------
 Title Card Required
 -------------------
 Symbolic Z-matrix:
 Charge =  0 Multiplicity = 1

 SCF Done:  E(RB3LYP) =  -618.680410607     A.U. after   26 cycles
 SCF Done:  E(RB3LYP) =  -618.559719473     A.U. after   23 cycles
 SCF Done:  E(RB3LYP) =  -618.769005150     A.U. after   17 cycles
 SCF Done:  E(RB3LYP) =  -618.841976038     A.U. after   16 cycles
 SCF Done:  E(RB3LYP) =  -618.970652766     A.U. after   16 cycles
 SCF Done:  E(RB3LYP) =  -619.059092343     A.U. after   16 cycles
 SCF Done:  E(RB3LYP) =  -618.986591236     A.U. after   15 cycles
 SCF Done:  E(RB3LYP) =  -618.989360764     A.U. after   16 cycles
 SCF Done:  E(RB3LYP) =  -619.078942854     A.U. after   12 cycles
 SCF Done:  E(RB3LYP) =  -619.103353650     A.U. after   14 cycles
 SCF Done:  E(RB3LYP) =  -619.147041908     A.U. after    9 cycles
 SCF Done:  E(RB3LYP) =  -619.147077648     A.U. after   10 cycles
 SCF Done:  E(RB3LYP) =  -619.147094933     A.U. after    9 cycles
 SCF Done:  E(RB3LYP) =  -619.147104943     A.U. after    9 cycles
 SCF Done:  E(RB3LYP) =  -619.147112627     A.U. after    8 cycles
 SCF Done:  E(RB3LYP) =  -619.147122160     A.U. after    8 cycles
 SCF Done:  E(RB3LYP) =  -619.147127467     A.U. after    8 cycles
 SCF Done:  E(RB3LYP) =  -619.147129914     A.U. after    8 cycles
 SCF Done:  E(RB3LYP) =  -619.147130874     A.U. after    8 cycles
 Optimization completed.
    -- Stationary point found.
 Normal termination of Gaussian 16 at Sat May 20 09:55:02 2023.

 ----------------------------------------------------------------------
 #N Geom=AllCheck Guess=TCheck SCRF=Check GenChk RB3LYP/6-31G(2df,p) Fr
 eq
 ----------------------------------------------------------------------

 Structure from the checkpoint file:  "CCC1CdCCdC2CdCCdCCdCdCC2dC1.chk"
 -------------------
 Title Card Required
 -------------------
 Charge =  0 Multiplicity = 1

                         Standard orientation:
 ---------------------------------------------------------------------
 Center     Atomic      Atomic             Coordinates (Angstroms)
 Number     Number       Type             X           Y           Z
 ---------------------------------------------------------------------
      1          6           0        3.581597    1.593698   -1.395967
      2          6           0        2.191181    1.341361   -0.807094
      3          6           0        2.231257    0.804409    0.646155
      4          6           0        2.929299   -0.533419    0.775164
      5          6           0        2.460759   -1.701317    0.298116
      6          6           0        1.161690   -1.951010   -0.283391
      7          6           0        0.012342   -1.275932   -0.032869
      8          6           0       -1.324671   -1.670067   -0.583976
      9          6           0       -1.982086   -0.867321   -1.459168
     10          6           0       -3.272321   -0.394484   -1.006680
     11          6           0       -3.386812    0.961158   -0.892781
     12          6           0       -3.285022    1.535797    0.473632
     13          6           0       -2.404941    0.853867    1.189827
     14          6           0       -1.504151   -0.038376    1.528205
     15          6           0       -0.115764   -0.151410    0.933094
     16          6           0        0.858919    0.712989    1.274851
     17          1           0        3.510590    1.985689   -2.415279
     18          1           0        4.169706    0.671515   -1.434350
     19          1           0        4.141189    2.322637   -0.798054
     20          1           0        1.641891    0.634124   -1.435790
     21          1           0        1.612729    2.273455   -0.805151
     22          1           0        2.806856    1.530850    1.231740
     23          1           0        3.899569   -0.535662    1.265782
     24          1           0        3.114866   -2.569321    0.360105
     25          1           0        1.084205   -2.822210   -0.930004
     26          1           0       -1.925737   -2.299019    0.074061
     27          1           0       -1.411324   -0.202454   -2.104099
     28          1           0       -3.734392   -0.996090   -0.226601
     29          1           0       -2.967652    1.600040   -1.673093
     30          1           0       -3.656351    2.521733    0.738140
     31          1           0       -1.822315   -0.872427    2.157530
     32          1           0        0.628516    1.437488    2.052347
 ---------------------------------------------------------------------

 SCF Done:  E(RB3LYP) =  -619.147130874     A.U. after    1 cycles

 The electronic state is 1-A.
 Alpha  occ. eigenvalues --  -10.20389 -10.20026 -10.20001 -10.19901 -10.19822
 Alpha  occ. eigenvalues --  -10.19671 -10.19273 -10.19264 -10.19171 -10.18770
 Alpha  occ. eigenvalues --  -10.18608 -10.18543 -10.18388 -10.18290 -10.17667
 Alpha  occ. eigenvalues --  -10.16993  -0.85819  -0.83410  -0.80017  -0.79185
 Alpha  occ. eigenvalues --   -0.77206  -0.73589  -0.71836  -0.69025  -0.64872
 Alpha  occ. eigenvalues --   -0.63543  -0.59833  -0.57372  -0.56014  -0.53124
 Alpha  occ. eigenvalues --   -0.51393  -0.50071  -0.48696  -0.46151  -0.45603
 Alpha  occ. eigenvalues --   -0.44959  -0.44020  -0.43296  -0.42472  -0.41520
 Alpha  occ. eigenvalues --   -0.39771  -0.38889  -0.38254  -0.37385  -0.36030
 Alpha  occ. eigenvalues --   -0.35518  -0.34277  -0.32878  -0.32315  -0.30621
 Alpha  occ. eigenvalues --   -0.30252  -0.27519  -0.25529  -0.24305  -0.21385
 Alpha  occ. eigenvalues --   -0.18972
 Alpha virt. eigenvalues --   -0.03942  -0.03330  -0.00734   0.00388   0.02107
 Alpha virt. eigenvalues --    0.04764   0.08488   0.09756   0.10787   0.11605
 Alpha virt. eigenvalues --    0.12534   0.13771   0.14896   0.15590   0.15737

 Mulliken charges:
               1
     1  C   -0.385504
     2  C   -0.172348
     3  C   -0.091339
     4  C   -0.105033
     5  C   -0.055634
     6  C   -0.198561
     7  C    0.168870
     8  C   -0.225667
     9  C   -0.061449
    10  C   -0.102427
    11  C   -0.100488
    12  C   -0.282091
    13  C    0.321524
    14  C   -0.398720
    15  C    0.267188
    16  C   -0.194301
    17  H    0.111600
    18  H    0.120334
    19  H    0.108763
    20  H    0.109409
    21  H    0.091815
    22  H    0.072521
    23  H    0.093658
    24  H    0.089861
    25  H    0.092414
    26  H    0.098053
    27  H    0.099853
    28  H    0.099763
    29  H    0.102633
    30  H    0.111053
    31  H    0.121154
    32  H    0.093096
 Sum of Mulliken charges =  -0.00000

 Dipole moment (field-independent basis, Debye):
    X=              0.9389    Y=              0.3910    Z=              0.4309  Tot=              1.1046
 Quadrupole moment (field-independent basis, Debye-Ang):
   XX=            -95.0922   YY=            -90.7614   ZZ=            -95.2580
   XY=             -0.8149   XZ=             -0.7045   YZ=             -1.0608

  Exact polarizability: 217.771 -22.176 167.036  11.244   6.211 128.927
 Approx polarizability: 329.669 -57.793 328.325  33.433  17.484 224.343

                      1                      2                      3
                      A                      A                      A
 Frequencies --     56.3367                57.0796                94.5513
 Red. masses --      3.8065                 4.3269                 2.3574
 Frc consts  --      0.0071                 0.0083                 0.0124
 IR Inten    --      0.1748                 0.1183                 0.0236

                      4                      5                      6
                      A                      A                      A
 Frequencies --    132.8862               164.6890               189.0092
 Red. masses --      3.3918                 2.4343                 3.7805
 Frc consts  --      0.0353                 0.0389                 0.0796
 IR Inten    --      0.3284                 0.2352                 0.1573

                      7                      8                      9
                      A                      A                      A
 Frequencies --    219.2433               244.7775               268.1541
 Red. masses --      2.9148                 1.3925                 2.9082
 Frc consts  --      0.0825                 0.0492                 0.1232
 IR Inten    --      0.6194                 0.0775                 0.6401

                     10                     11                     12
                      A                      A                      A
 Frequencies --    306.7308               312.5135               321.6078
 Red. masses --      3.7756                 3.1269                 2.2685
 Frc consts  --      0.2093                 0.1799                 0.1382
 IR Inten    --      0.9464                 0.1003                 4.4115

                     13                     14                     15
                      A                      A                      A
 Frequencies --    336.1344               357.8146               381.3602
 Red. masses --      3.9374                 4.0151                 3.1423
 Frc consts  --      0.2621                 0.3029                 0.2693
 IR Inten    --      3.0984                 0.2624                 0.7440

                     16                     17                     18
                      A                      A                      A
 Frequencies --    401.1011               420.0846               475.8623
 Red. masses --      3.0954                 3.4876                 3.0396
 Frc consts  --      0.2934                 0.3626                 0.4055
 IR Inten    --      4.3500                 4.8673                 5.6093

                     19                     20                     21
                      A                      A                      A
 Frequencies --    517.6587               545.1285               560.5631
 Red. masses --      4.1749                 3.5132                 4.3049
 Frc consts  --      0.6592                 0.6151                 0.7970
 IR Inten    --      5.7397                 8.4967                 5.7385

                     22                     23                     24
                      A                      A                      A
 Frequencies --    577.4796               637.7485               691.1814
 Red. masses --      3.9114                 3.7375                 3.7056
 Frc consts  --      0.7685                 0.8956                 1.0430
 IR Inten    --      2.3273                 8.9342                 8.5247

                     25                     26                     27
                      A                      A                      A
 Frequencies --    728.2906               750.9032               763.7194
 Red. masses --      2.5184                 2.5824                 1.5982
 Frc consts  --      0.7870                 0.8579                 0.5492
 IR Inten    --     19.0539                 7.3561                 2.1305

                     28                     29                     30
                      A                      A                      A
 Frequencies --    776.2636               789.3694               802.4204
 Red. masses --      1.7654                 1.8236                 2.5008
 Frc consts  --      0.6268                 0.6695                 0.9487
 IR Inten    --    137.2796                64.2097                20.3175

                     31                     32                     33
                      A                      A                      A
 Frequencies --    813.9306               830.3154               864.3093
 Red. masses --      1.7485                 2.5282                 2.1260
 Frc consts  --      0.6825                 1.0269                 0.9357
 IR Inten    --     37.5239                 7.0340                 3.3367

                     34                     35                     36
                      A                      A                      A
 Frequencies --    886.9677               894.0821               927.6079
 Red. masses --      1.3166                 1.7675                 1.4937
 Frc consts  --      0.6103                 0.8325                 0.7573
 IR Inten    --     34.2893                 8.2903                 5.0017

                     37                     38                     39
                      A                      A                      A
 Frequencies --    949.7707               967.9192               987.5174
 Red. masses --      1.8656                 1.4350                 1.4607
 Frc consts  --      0.9915                 0.7921                 0.8393
 IR Inten    --      7.5783                17.9501                 0.4811

                     40                     41                     42
                      A                      A                      A
 Frequencies --   1002.2423              1015.0948              1029.9119
 Red. masses --      2.1223                 2.2062                 2.1904
 Frc consts  --      1.2560                 1.3394                 1.3689
 IR Inten    --      0.7410                14.5634                18.6697

                     43                     44                     45
                      A                      A                      A
 Frequencies --   1049.4931              1061.8656              1079.4738
 Red. masses --      1.9726                 1.6615                 1.8555
 Frc consts  --      1.2801                 1.1038                 1.2739
 IR Inten    --      2.1152                23.9312                 3.4762

                     46                     47                     48
                      A                      A                      A
 Frequencies --   1116.2127              1122.3653              1142.2776
 Red. masses --      2.3732                 2.3848                 2.0180
 Frc consts  --      1.7421                 1.7700                 1.5513
 IR Inten    --      1.4999                 1.8321                 5.5869

                     49                     50                     51
                      A                      A                      A
 Frequencies --   1147.4100              1162.2076              1218.3174
 Red. masses --      3.1199                 2.5355                 1.1729
 Frc consts  --      2.4200                 2.0179                 1.0257
 IR Inten    --      4.5594                 1.4805                 1.3406

                     52                     53                     54
                      A                      A                      A
 Frequencies --   1252.4850              1278.9832              1284.6566
 Red. masses --      1.1401                 1.2780                 1.2602
 Frc consts  --      1.0538                 1.2317                 1.2254
 IR Inten    --      0.1957                 2.3302                 1.0447

                     55                     56                     57
                      A                      A                      A
 Frequencies --   1303.8280              1315.4202              1323.3739
 Red. masses --      1.4025                 1.3565                 1.3096
 Frc consts  --      1.4047                 1.3829                 1.3513
 IR Inten    --     12.4894                 0.6010                 5.3786

                     58                     59                     60
                      A                      A                      A
 Frequencies --   1326.7075              1343.9223              1369.0499
 Red. masses --      1.3147                 1.3195                 1.4531
 Frc consts  --      1.3635                 1.4041                 1.6047
 IR Inten    --      0.1176                 9.3732                 1.3419

                     61                     62                     63
                      A                      A                      A
 Frequencies --   1371.1871              1380.8555              1387.7256
 Red. masses --      1.3205                 1.5702                 2.3330
 Frc consts  --      1.4628                 1.7640                 2.6471
 IR Inten    --      0.1141                 1.2992                 1.3087

                     64                     65                     66
                      A                      A                      A
 Frequencies --   1408.1620              1430.9011              1485.6100
 Red. masses --      1.2379                 1.5551                 1.0727
 Frc consts  --      1.4462                 1.8760                 1.3949
 IR Inten    --      2.4601                 0.6242                 1.0698

                     67                     68                     69
                      A                      A                      A
 Frequencies --   1498.3732              1507.5706              1546.5689
 Red. masses --      1.0439                 1.0588                 4.2200
 Frc consts  --      1.3809                 1.4179                 5.9470
 IR Inten    --      4.3641                 3.0932                13.8828

                     70                     71                     72
                      A                      A                      A
 Frequencies --   1574.6556              1605.4507              1670.2931
 Red. masses --      4.6404                 8.2014                 7.3654
 Frc consts  --      6.7791                12.4547                12.1068
 IR Inten    --      5.8644                 8.6200                 0.6943

                     73                     74                     75
                      A                      A                      A
 Frequencies --   1679.4599              1957.8269              3026.9668
 Red. masses --      5.8685                10.5646                 1.0787
 Frc consts  --      9.7525                23.8591                 5.8230
 IR Inten    --      0.4963                21.6832                15.1918

                     76                     77                     78
                      A                      A                      A
 Frequencies --   3029.4582              3031.8155              3079.6908
 Red. masses --      1.0425                 1.0644                 1.0956
 Frc consts  --      5.6372                 5.7642                 6.1221
 IR Inten    --     47.0652                15.1630                 2.9246

                     79                     80                     81
                      A                      A                      A
 Frequencies --   3087.9510              3093.0385              3100.7977
 Red. masses --      1.0843                 1.0852                 1.0992
 Frc consts  --      6.0914                 6.1167                 6.2268
 IR Inten    --      5.2233                18.8527                37.0526

                     82                     83                     84
                      A                      A                      A
 Frequencies --   3102.5493              3107.6857              3131.2411
 Red. masses --      1.0844                 1.1019                 1.0826
 Frc consts  --      6.1503                 6.2698                 6.2541
 IR Inten    --     15.8141                30.4415                 4.7729

                     85                     86                     87
                      A                      A                      A
 Frequencies --   3137.4340              3149.1641              3150.4880
 Red. masses --      1.0868                 1.0883                 1.0882
 Frc consts  --      6.3030                 6.3589                 6.3640
 IR Inten    --     12.8764                21.7194                14.6071

                     88                     89                     90
                      A                      A                      A
 Frequencies --   3151.6763              3156.6922              3161.5908
 Red. masses --      1.0891                 1.0909                 1.0942
 Frc consts  --      6.3741                 6.4049                 6.4442
 IR Inten    --     17.3993                28.4062                30.7057

 - Thermochemistry -
 -------------------
 Temperature   298.150 Kelvin.  Pressure   1.00000 Atm.
 Atom     1 has atomic number  6 and mass  12.00000

 Molecular mass:   208.12520 amu.
 Principal axes and moments of inertia in atomic units:
                           1         2         3
     Eigenvalues --  1854.963984896.226745278.68816
           X            0.99985   0.01374  -0.01098
           Y           -0.01441   0.99783  -0.06429
           Z            0.01007   0.06444   0.99787
 This molecule is an asymmetric top.
 Rotational symmetry number  1.
 Warning -- assumption of classical behavior for rotation
           may cause significant error
 Rotational temperatures (Kelvin)      0.04669     0.01769     0.01641
 Rotational constants (GHZ):           0.97293     0.36860     0.34189
 Zero-point vibrational energy     700720.2 (Joules/Mol)
                                  167.47614 (Kcal/Mol)
 Warning -- explicit consideration of  22 degrees of freedom as
           vibrations may cause significant error
 Vibrational temperatures:     81.06    82.12   136.04   191.19   236.95
          (Kelvin)            271.94   315.44   352.18   385.81   441.32
                              449.64   462.72   483.62   514.82   548.69
                              577.10   604.41   684.66   744.80   784.32
                              806.53   830.86   917.58   994.46  1047.85
                             1080.38  1098.82  1116.87  1135.73  1154.50
                             1171.06  1194.64  1243.55  1276.15  1286.38
                             1334.62  1366.51  1392.62  1420.82  1442.00
                             1460.50  1481.81  1509.99  1527.79  1553.12
                             1605.98  1614.83  1643.48  1650.87  1672.16
                             1752.89  1802.05  1840.17  1848.33  1875.92
                             1892.60  1904.04  1908.84  1933.60  1969.76
                             1972.83  1986.74  1996.63  2026.03  2058.75
                             2137.46  2155.82  2169.06  2225.17  2265.58
                             2309.89  2403.18  2416.37  2816.88  4355.13
                             4358.71  4362.11  4430.99  4442.87  4450.19
                             4461.36  4463.88  4471.27  4505.16  4514.07
                             4530.94  4532.85  4534.56  4541.78  4548.82

 Zero-point correction=                           0.266890 (Hartree/Particle)
 Thermal correction to Energy=                    0.281094
 Thermal correction to Enthalpy=                  0.282038
 Thermal correction to Gibbs Free Energy=         0.226644
 Sum of electronic and zero-point Energies=           -618.880241
 Sum of electronic and thermal Energies=              -618.866037
 Sum of electronic and thermal Enthalpies=            -618.865093
 Sum of electronic and thermal Free Energies=         -618.920487

                     E (Thermal)             CV                S
                      KCal/Mol        Cal/Mol-Kelvin    Cal/Mol-Kelvin
 Total                  176.389             57.536            116.586
 Electronic               0.000              0.000              0.000
 Translational            0.889              2.981             41.903
 Rotational               0.889              2.981             32.239
 Vibrational            174.611             51.575             42.444
 Vibration     1          0.596              1.975              4.582
 Vibration     2          0.596              1.975              4.556
 Vibration     3          0.603              1.953              3.564
 Vibration     4          0.613              1.920              2.904
 Vibration     5          0.623              1.886              2.495
 Vibration     6          0.633              1.855              2.238
 Vibration     7          0.647              1.812              1.965
 Vibration     8          0.660              1.771              1.768
 Vibration     9          0.673              1.732              1.608
 Vibration    10          0.697              1.661              1.380
 Vibration    11          0.701              1.650              1.349
 Vibration    12          0.707              1.632              1.302
 Vibration    13          0.717              1.603              1.230
 Vibration    14          0.733              1.559              1.132
 Vibration    15          0.751              1.510              1.034
 Vibration    16          0.767              1.468              0.959
 Vibration    17          0.783              1.427              0.892
 Vibration    18          0.833              1.304              0.721
 Vibration    19          0.873              1.211              0.615
 Vibration    20          0.900              1.150              0.554
 Vibration    21          0.916              1.117              0.523
 Vibration    22          0.934              1.080              0.490

                           ! Non-Optimized Parameters !
 Normal termination of Gaussian 16 at Sat May 20 13:05:07 2023.
