 Gaussian 16, Revision A.03,
 Gaussian 16:  ES64L-G16RevA.03 25-Dec-2016

 -----------------------------
 # opt freq b3lyp/6-31g(2df,p)
 -----------------------------

 -------------------
 Title Card Required
 -------------------
 Symbolic Z-matrix:
 Charge =  0 Multiplicity = 1

 SCF Done:  E(RB3LYP) =  -693.091641761     A.U. after   22 cycles
 SCF Done:  E(RB3LYP) =  -688.764940702     A.U. after   26 cycles
 SCF Done:  E(RB3LYP) =  -693.114591226     A.U. after   17 cycles
 SCF Done:  E(RB3LYP) =  -693.160611594     A.U. after   14 cycles
 SCF Done:  E(RB3LYP) =  -693.183285289     A.U. after   14 cycles
 SCF Done:  E(RB3LYP) =  -693.208787282     A.U. after   15 cycles
 SCF Done:  E(RB3LYP) =  -693.238304293     A.U. after   14 cycles
 SCF Done:  E(RB3LYP) =  -693.312531083     A.U. after   14 cycles
 SCF Done:  E(RB3LYP) =  -693.377064048     A.U. after   14 cycles
 SCF Done:  E(RB3LYP) =  -693.331913842     A.U. after   14 cycles
 SCF Done:  E(RB3LYP) =  -693.464239256     A.U. after    8 cycles
 SCF Done:  E(RB3LYP) =  -693.464246895     A.U. after   10 cycles
 SCF Done:  E(RB3LYP) =  -693.464258622     A.U. after    8 cycles
 SCF Done:  E(RB3LYP) =  -693.464286313     A.U. after   10 cycles
 SCF Done:  E(RB3LYP) =  -693.464305504     A.U. after    9 cycles
 SCF Done:  E(RB3LYP) =  -693.464319143     A.U. after   10 cycles
 SCF Done:  E(RB3LYP) =  -693.464321173     A.U. after    8 cycles
 SCF Done:  E(RB3LYP) =  -693.464322433     A.U. after    7 cycles
 SCF Done:  E(RB3LYP) =  -693.464323194     A.U. after    7 cycles
 Optimization completed.
    -- Stationary point found.
 Normal termination of Gaussian 16 at Thu May 18 03:53:36 2023.

 ----------------------------------------------------------------------
 #N Geom=AllCheck Guess=TCheck SCRF=Check GenChk RB3LYP/6-31G(2df,p) Fr
 eq
 ----------------------------------------------------------------------

 Structure from the checkpoint file:  "CCC1C2dCCdCCdCCdCC1COC2dO.chk"
 -------------------
 Title Card Required
 -------------------
 Charge =  0 Multiplicity = 1

                         Standard orientation:
 ---------------------------------------------------------------------
 Center     Atomic      Atomic             Coordinates (Angstroms)
 Number     Number       Type             X           Y           Z
 ---------------------------------------------------------------------
      1          6           0       -1.609628   -2.418398   -2.022230
      2          6           0       -1.580691   -0.931367   -1.653472
      3          6           0       -0.508475   -0.542819   -0.595501
      4          6           0       -0.324323    0.968202   -0.587682
      5          6           0        0.649137    1.601856   -1.293003
      6          6           0        1.748313    0.779809   -1.834377
      7          6           0        2.705883    0.705919   -0.869910
      8          6           0        2.784441   -0.552484   -0.142697
      9          6           0        2.405374   -0.441716    1.147627
     10          6           0        1.559107   -1.363660    1.925498
     11          6           0        0.236353   -1.546780    1.785599
     12          6           0       -0.851480   -1.116134    0.802839
     13          6           0       -1.919652   -0.214839    1.451234
     14          8           0       -1.635112    1.186792    1.442203
     15          6           0       -1.103779    1.814350    0.351180
     16          8           0       -1.186113    3.015666    0.290089
     17          1           0       -2.343910   -2.603872   -2.812085
     18          1           0       -1.877822   -3.059386   -1.176242
     19          1           0       -0.633374   -2.752267   -2.391686
     20          1           0       -2.574309   -0.608662   -1.317357
     21          1           0       -1.374635   -0.345983   -2.556336
     22          1           0        0.419932   -1.009083   -0.923129
     23          1           0        0.748552    2.677177   -1.171327
     24          1           0        1.504777   -0.110365   -2.406640
     25          1           0        2.877060    1.596505   -0.264765
     26          1           0        2.655844   -1.484948   -0.685855
     27          1           0        2.550121    0.527946    1.627818
     28          1           0        2.012688   -1.829927    2.801101
     29          1           0       -0.207501   -2.174552    2.560563
     30          1           0       -1.387323   -2.057952    0.622409
     31          1           0       -2.065495   -0.468198    2.504552
     32          1           0       -2.878280   -0.367739    0.940005
 ---------------------------------------------------------------------

 SCF Done:  E(RB3LYP) =  -693.464323194     A.U. after    1 cycles

 The electronic state is 1-A.
 Alpha  occ. eigenvalues --  -19.16683 -19.10311 -10.29282 -10.24696 -10.22052
 Alpha  occ. eigenvalues --  -10.21246 -10.21158 -10.21114 -10.20324 -10.20310
 Alpha  occ. eigenvalues --  -10.20294 -10.20224 -10.20114 -10.19498 -10.19270
 Alpha  occ. eigenvalues --  -10.18555  -1.08089  -0.99994  -0.86444  -0.83255
 Alpha  occ. eigenvalues --   -0.81740  -0.77159  -0.76109  -0.73004  -0.69559
 Alpha  occ. eigenvalues --   -0.65976  -0.62409  -0.60470  -0.59812  -0.57369
 Alpha  occ. eigenvalues --   -0.53874  -0.51910  -0.49488  -0.48572  -0.48405
 Alpha  occ. eigenvalues --   -0.46960  -0.46178  -0.45034  -0.43838  -0.42737
 Alpha  occ. eigenvalues --   -0.42323  -0.41550  -0.41112  -0.39829  -0.39415
 Alpha  occ. eigenvalues --   -0.38114  -0.37628  -0.36413  -0.35444  -0.34075
 Alpha  occ. eigenvalues --   -0.32662  -0.32559  -0.30955  -0.28271  -0.26534
 Alpha  occ. eigenvalues --   -0.26031  -0.25373  -0.20644
 Alpha virt. eigenvalues --   -0.04586  -0.03506  -0.00777   0.01153   0.06278
 Alpha virt. eigenvalues --    0.06680   0.09172   0.09778   0.11431   0.11793
 Alpha virt. eigenvalues --    0.12802   0.13631   0.14369   0.14874   0.15262

 Mulliken charges:
               1
     1  C   -0.396418
     2  C   -0.187214
     3  C   -0.124111
     4  C    0.115564
     5  C   -0.163022
     6  C   -0.192519
     7  C   -0.046793
     8  C   -0.115740
     9  C   -0.081500
    10  C   -0.150676
    11  C   -0.033593
    12  C   -0.084985
    13  C   -0.082488
    14  O   -0.235159
    15  C    0.365674
    16  O   -0.344144
    17  H    0.120997
    18  H    0.120781
    19  H    0.116322
    20  H    0.102747
    21  H    0.107894
    22  H    0.069798
    23  H    0.139228
    24  H    0.113260
    25  H    0.116976
    26  H    0.109938
    27  H    0.114638
    28  H    0.101962
    29  H    0.096064
    30  H    0.094685
    31  H    0.118856
    32  H    0.112975
 Sum of Mulliken charges =  -0.00000

 Dipole moment (field-independent basis, Debye):
    X=              0.9711    Y=             -4.6249    Z=             -0.4451  Tot=              4.7467
 Quadrupole moment (field-independent basis, Debye-Ang):
   XX=            -92.9312   YY=           -104.8711   ZZ=            -92.3046
   XY=              8.9580   XZ=              1.7266   YZ=             -2.8560

  Exact polarizability: 161.008   3.913 143.479  -2.095 -13.652 150.373
 Approx polarizability: 266.220   1.001 227.507  -6.750 -32.146 267.915

                      1                      2                      3
                      A                      A                      A
 Frequencies --     55.0971                67.2185                88.1838
 Red. masses --      3.0097                 6.0120                 3.8886
 Frc consts  --      0.0054                 0.0160                 0.0178
 IR Inten    --      0.1307                 1.3805                 0.1823

                      4                      5                      6
                      A                      A                      A
 Frequencies --    102.8094               136.9041               156.4746
 Red. masses --      2.1131                 4.4656                 3.2331
 Frc consts  --      0.0132                 0.0493                 0.0466
 IR Inten    --      0.3461                 1.0968                 1.2423

                      7                      8                      9
                      A                      A                      A
 Frequencies --    192.9749               212.4620               245.7135
 Red. masses --      3.7608                 1.7940                 3.3432
 Frc consts  --      0.0825                 0.0477                 0.1189
 IR Inten    --      1.0945                 0.0882                 2.2797

                     10                     11                     12
                      A                      A                      A
 Frequencies --    258.4042               265.2335               315.1365
 Red. masses --      2.8116                 2.2045                 2.4693
 Frc consts  --      0.1106                 0.0914                 0.1445
 IR Inten    --      1.2653                 3.1766                 4.4779

                     13                     14                     15
                      A                      A                      A
 Frequencies --    336.5052               367.2726               395.7935
 Red. masses --      2.6651                 3.5450                 4.1860
 Frc consts  --      0.1778                 0.2817                 0.3864
 IR Inten    --      2.5214                 9.7602                 4.7214

                     16                     17                     18
                      A                      A                      A
 Frequencies --    432.7091               459.6833               475.9088
 Red. masses --      3.4020                 3.4212                 3.6004
 Frc consts  --      0.3753                 0.4259                 0.4805
 IR Inten    --      6.2995                 4.1514                 6.0121

                     19                     20                     21
                      A                      A                      A
 Frequencies --    497.5713               530.4863               567.7989
 Red. masses --      4.7281                 4.2424                 5.0587
 Frc consts  --      0.6897                 0.7034                 0.9609
 IR Inten    --      4.7358                12.9272                 2.8967

                     22                     23                     24
                      A                      A                      A
 Frequencies --    587.8705               613.5031               702.8399
 Red. masses --      4.5282                 4.1900                 3.1717
 Frc consts  --      0.9220                 0.9292                 0.9231
 IR Inten    --      4.0012                12.2795                 5.0925

                     25                     26                     27
                      A                      A                      A
 Frequencies --    707.8541               729.0422               757.1521
 Red. masses --      2.6964                 1.7589                 5.5411
 Frc consts  --      0.7960                 0.5508                 1.8716
 IR Inten    --      6.2323                17.6433                17.5035

                     28                     29                     30
                      A                      A                      A
 Frequencies --    773.9506               806.8539               832.0071
 Red. masses --      1.7330                 1.5352                 2.0547
 Frc consts  --      0.6116                 0.5889                 0.8380
 IR Inten    --     13.4743                90.7888                75.2050

                     31                     32                     33
                      A                      A                      A
 Frequencies --    842.6967               873.6330               922.8245
 Red. masses --      2.9329                 2.3241                 2.3714
 Frc consts  --      1.2271                 1.0451                 1.1899
 IR Inten    --     23.9779                 1.8746                 6.0278

                     34                     35                     36
                      A                      A                      A
 Frequencies --    932.1644               943.7841               967.1170
 Red. masses --      1.5933                 2.5734                 2.4357
 Frc consts  --      0.8157                 1.3505                 1.3422
 IR Inten    --     25.1688                10.0115                14.2282

                     37                     38                     39
                      A                      A                      A
 Frequencies --    983.2278              1001.8366              1021.8069
 Red. masses --      1.2865                 1.5097                 1.6577
 Frc consts  --      0.7328                 0.8927                 1.0198
 IR Inten    --     16.9657                15.8045                12.0714

                     40                     41                     42
                      A                      A                      A
 Frequencies --   1042.7458              1046.3882              1079.6620
 Red. masses --      2.7049                 2.4192                 1.2946
 Frc consts  --      1.7329                 1.5606                 0.8891
 IR Inten    --      6.0377                17.2923               127.3063

                     43                     44                     45
                      A                      A                      A
 Frequencies --   1096.3951              1098.7805              1119.2062
 Red. masses --      2.4465                 2.4257                 2.4568
 Frc consts  --      1.7327                 1.7254                 1.8131
 IR Inten    --     10.7233                29.8446                18.3687

                     46                     47                     48
                      A                      A                      A
 Frequencies --   1132.1772              1146.3217              1159.3719
 Red. masses --      2.4752                 2.3077                 2.3123
 Frc consts  --      1.8693                 1.7867                 1.8312
 IR Inten    --      7.1472                72.2766                21.1155

                     49                     50                     51
                      A                      A                      A
 Frequencies --   1187.3501              1226.9182              1262.0182
 Red. masses --      2.2566                 1.3311                 1.4427
 Frc consts  --      1.8744                 1.1805                 1.3538
 IR Inten    --     62.2890                 1.9959                50.3353

                     52                     53                     54
                      A                      A                      A
 Frequencies --   1272.1576              1292.6128              1310.3930
 Red. masses --      1.2148                 1.1430                 1.5882
 Frc consts  --      1.1583                 1.1252                 1.6068
 IR Inten    --      0.3139                 8.1386                25.3504

                     55                     56                     57
                      A                      A                      A
 Frequencies --   1316.8608              1318.9167              1323.9653
 Red. masses --      1.4020                 1.1762                 1.3234
 Frc consts  --      1.4324                 1.2055                 1.3667
 IR Inten    --      6.5618                12.0145                 2.7852

                     58                     59                     60
                      A                      A                      A
 Frequencies --   1332.0629              1349.9597              1359.6323
 Red. masses --      1.4429                 1.3451                 1.3435
 Frc consts  --      1.5085                 1.4443                 1.4633
 IR Inten    --      2.7638                 4.0599                 5.7955

                     61                     62                     63
                      A                      A                      A
 Frequencies --   1375.9580              1386.3641              1414.8659
 Red. masses --      1.5214                 1.4496                 1.2357
 Frc consts  --      1.6971                 1.6415                 1.4575
 IR Inten    --      3.8907                 3.7749                 3.2332

                     64                     65                     66
                      A                      A                      A
 Frequencies --   1419.7029              1438.5861              1484.7368
 Red. masses --      1.3452                 1.3369                 1.0686
 Frc consts  --      1.5975                 1.6301                 1.3880
 IR Inten    --     16.3567                 3.0488                 2.7391

                     67                     68                     69
                      A                      A                      A
 Frequencies --   1498.9086              1503.5644              1511.9484
 Red. masses --      1.0536                 1.0566                 1.0856
 Frc consts  --      1.3947                 1.4074                 1.4622
 IR Inten    --      8.7017                 2.1454                 9.7908

                     70                     71                     72
                      A                      A                      A
 Frequencies --   1543.9040              1580.3983              1625.8452
 Red. masses --      4.2536                 6.9899                 5.1520
 Frc consts  --      5.9738                10.2862                 8.0238
 IR Inten    --     16.0680                95.6546                 4.4390

                     73                     74                     75
                      A                      A                      A
 Frequencies --   1686.8736              1804.2533              3005.9320
 Red. masses --      8.1263                12.7139                 1.0781
 Frc consts  --     13.6241                24.3851                 5.7392
 IR Inten    --      9.6194               342.0623                 2.3997

                     76                     77                     78
                      A                      A                      A
 Frequencies --   3023.5238              3031.7788              3032.6363
 Red. masses --      1.0670                 1.0534                 1.0474
 Frc consts  --      5.7468                 5.7046                 5.6756
 IR Inten    --     24.0524                42.4075                33.3649

                     79                     80                     81
                      A                      A                      A
 Frequencies --   3062.2349              3091.0160              3094.7864
 Red. masses --      1.0982                 1.0947                 1.0846
 Frc consts  --      6.0674                 6.1621                 6.1204
 IR Inten    --      6.3887                16.4807                 6.5714

                     82                     83                     84
                      A                      A                      A
 Frequencies --   3097.7184              3099.9378              3104.2106
 Red. masses --      1.0997                 1.0844                 1.1002
 Frc consts  --      6.2177                 6.1396                 6.2465
 IR Inten    --     28.0549                 9.5217                30.5853

                     85                     86                     87
                      A                      A                      A
 Frequencies --   3110.4121              3118.1308              3120.6400
 Red. masses --      1.0839                 1.0906                 1.0871
 Frc consts  --      6.1783                 6.2475                 6.2377
 IR Inten    --     13.7003                57.8362                10.0476

                     88                     89                     90
                      A                      A                      A
 Frequencies --   3157.2919              3166.3126              3173.0011
 Red. masses --      1.0876                 1.0894                 1.0877
 Frc consts  --      6.3880                 6.4351                 6.4518
 IR Inten    --      9.4700                14.2682                 2.0006

 - Thermochemistry -
 -------------------
 Temperature   298.150 Kelvin.  Pressure   1.00000 Atm.
 Atom     1 has atomic number  6 and mass  12.00000

 Molecular mass:   216.11503 amu.
 Principal axes and moments of inertia in atomic units:
                           1         2         3
     Eigenvalues --  3033.516603462.017813756.93759
           X            0.98409   0.16743   0.05940
           Y           -0.17179   0.98204   0.07806
           Z           -0.04526  -0.08702   0.99518
 This molecule is an asymmetric top.
 Rotational symmetry number  1.
 Warning -- assumption of classical behavior for rotation
           may cause significant error
 Rotational temperatures (Kelvin)      0.02855     0.02502     0.02305
 Rotational constants (GHZ):           0.59493     0.52130     0.48038
 Zero-point vibrational energy     702207.2 (Joules/Mol)
                                  167.83155 (Kcal/Mol)
 Warning -- explicit consideration of  23 degrees of freedom as
           vibrations may cause significant error
 Vibrational temperatures:     79.27    96.71   126.88   147.92   196.97
          (Kelvin)            225.13   277.65   305.69   353.53   371.79
                              381.61   453.41   484.16   528.42   569.46
                              622.57   661.38   684.73   715.89   763.25
                              816.94   845.81   882.69  1011.23  1018.44
                             1048.93  1089.37  1113.54  1160.88  1197.07
                             1212.45  1256.96  1327.74  1341.18  1357.89
                             1391.47  1414.65  1441.42  1470.15  1500.28
                             1505.52  1553.39  1577.47  1580.90  1610.29
                             1628.95  1649.30  1668.08  1708.33  1765.26
                             1815.76  1830.35  1859.78  1885.36  1894.67
                             1897.63  1904.89  1916.54  1942.29  1956.21
                             1979.70  1994.67  2035.68  2042.64  2069.80
                             2136.21  2156.60  2163.29  2175.36  2221.33
                             2273.84  2339.23  2427.03  2595.92  4324.87
                             4350.18  4362.05  4363.29  4405.87  4447.28
                             4452.71  4456.93  4460.12  4466.27  4475.19
                             4486.29  4489.90  4542.64  4555.62  4565.24

 Zero-point correction=                           0.267457 (Hartree/Particle)
 Thermal correction to Energy=                    0.281884
 Thermal correction to Enthalpy=                  0.282828
 Thermal correction to Gibbs Free Energy=         0.226641
 Sum of electronic and zero-point Energies=           -693.196867
 Sum of electronic and thermal Energies=              -693.182440
 Sum of electronic and thermal Enthalpies=            -693.181495
 Sum of electronic and thermal Free Energies=         -693.237682

                     E (Thermal)             CV                S
                      KCal/Mol        Cal/Mol-Kelvin    Cal/Mol-Kelvin
 Total                  176.885             56.948            118.255
 Electronic               0.000              0.000              0.000
 Translational            0.889              2.981             42.015
 Rotational               0.889              2.981             32.045
 Vibrational            175.107             50.987             44.195
 Vibration     1          0.596              1.976              4.626
 Vibration     2          0.598              1.970              4.233
 Vibration     3          0.601              1.957              3.700
 Vibration     4          0.605              1.947              3.400
 Vibration     5          0.614              1.916              2.847
 Vibration     6          0.620              1.895              2.592
 Vibration     7          0.635              1.850              2.199
 Vibration     8          0.643              1.822              2.022
 Vibration     9          0.660              1.770              1.761
 Vibration    10          0.667              1.749              1.673
 Vibration    11          0.671              1.737              1.627
 Vibration    12          0.702              1.645              1.335
 Vibration    13          0.717              1.603              1.229
 Vibration    14          0.740              1.540              1.091
 Vibration    15          0.763              1.479              0.978
 Vibration    16          0.794              1.399              0.850
 Vibration    17          0.818              1.339              0.767
 Vibration    18          0.833              1.303              0.721
 Vibration    19          0.853              1.255              0.664
 Vibration    20          0.885              1.183              0.586
 Vibration    21          0.924              1.101              0.508
 Vibration    22          0.945              1.058              0.471
 Vibration    23          0.973              1.003              0.427

                           ! Non-Optimized Parameters !
 Normal termination of Gaussian 16 at Thu May 18 07:26:49 2023.
