 Gaussian 16, Revision A.03,
 Gaussian 16:  ES64L-G16RevA.03 25-Dec-2016

 -----------------------------
 # opt freq b3lyp/6-31g(2df,p)
 -----------------------------

 -------------------
 Title Card Required
 -------------------
 Symbolic Z-matrix:
 Charge =  0 Multiplicity = 1

 SCF Done:  E(RB3LYP) =  -696.328782913     A.U. after   16 cycles
 SCF Done:  E(RB3LYP) =  -696.393143340     A.U. after   13 cycles
 SCF Done:  E(RB3LYP) =  -696.459110115     A.U. after   14 cycles
 SCF Done:  E(RB3LYP) =  -696.481842164     A.U. after   14 cycles
 SCF Done:  E(RB3LYP) =  -696.491056209     A.U. after   14 cycles
 SCF Done:  E(RB3LYP) =  -696.522615799     A.U. after   13 cycles
 SCF Done:  E(RB3LYP) =  -696.539586580     A.U. after   13 cycles
 SCF Done:  E(RB3LYP) =  -696.551136296     A.U. after   13 cycles
 SCF Done:  E(RB3LYP) =  -696.558556474     A.U. after   13 cycles
 SCF Done:  E(RB3LYP) =  -696.562015803     A.U. after   12 cycles
 SCF Done:  E(RB3LYP) =  -696.597456830     A.U. after   13 cycles
 SCF Done:  E(RB3LYP) =  -696.597564833     A.U. after   12 cycles
 SCF Done:  E(RB3LYP) =  -696.597548607     A.U. after   11 cycles
 SCF Done:  E(RB3LYP) =  -696.597579988     A.U. after   12 cycles
 SCF Done:  E(RB3LYP) =  -696.597554277     A.U. after   12 cycles
 SCF Done:  E(RB3LYP) =  -696.597588703     A.U. after   11 cycles
 SCF Done:  E(RB3LYP) =  -696.597588848     A.U. after    7 cycles
 SCF Done:  E(RB3LYP) =  -696.597588837     A.U. after    7 cycles
 SCF Done:  E(RB3LYP) =  -696.597588876     A.U. after    7 cycles
 Optimization completed.
    -- Stationary point found.
 Normal termination of Gaussian 16 at Thu May 18 22:27:57 2023.

 ----------------------------------------------------------------------
 #N Geom=AllCheck Guess=TCheck SCRF=Check GenChk RB3LYP/6-31G(2df,p) Fr
 eq
 ----------------------------------------------------------------------

 Structure from the checkpoint file:  "CCC1CdCCdC2CdCCdC2CdCCdC1C1dCC1.chk"
 -------------------
 Title Card Required
 -------------------
 Charge =  0 Multiplicity = 1

                         Standard orientation:
 ---------------------------------------------------------------------
 Center     Atomic      Atomic             Coordinates (Angstroms)
 Number     Number       Type             X           Y           Z
 ---------------------------------------------------------------------
      1          6           0       -2.444359   -3.226609    0.127596
      2          6           0       -2.275276   -1.803287    0.671554
      3          6           0       -1.688053   -0.810044   -0.353425
      4          6           0       -0.221032   -0.982986   -0.671972
      5          6           0        0.674451   -1.743734   -0.030135
      6          6           0        2.126283   -1.608586   -0.095178
      7          6           0        2.922221   -0.504091   -0.041898
      8          6           0        4.383158   -0.651387   -0.169189
      9          6           0        4.951133    0.574649   -0.203850
     10          6           0        3.895286    1.570760   -0.075681
     11          6           0        2.677149    0.967499    0.057427
     12          6           0        1.404131    1.666127    0.189194
     13          6           0        0.336272    1.164391    0.828862
     14          6           0       -1.055805    1.529080    0.555057
     15          6           0       -1.965353    0.656832    0.053690
     16          6           0       -3.299559    1.121215   -0.201152
     17          6           0       -4.512020    0.938767   -0.636596
     18          6           0       -4.222032    2.307589   -0.088077
     19          1           0       -2.857051   -3.891290    0.892844
     20          1           0       -1.496317   -3.652916   -0.212239
     21          1           0       -3.131676   -3.236318   -0.725658
     22          1           0       -1.651282   -1.808203    1.573639
     23          1           0       -3.253099   -1.423255    0.984449
     24          1           0       -2.252238   -0.943231   -1.289114
     25          1           0        0.150262   -0.300210   -1.431511
     26          1           0        0.331805   -2.491964    0.684037
     27          1           0        2.671774   -2.554000   -0.101601
     28          1           0        4.876889   -1.609643   -0.259776
     29          1           0        6.003540    0.800830   -0.310258
     30          1           0        4.057572    2.641893   -0.065190
     31          1           0        1.295196    2.582047   -0.392375
     32          1           0        0.485540    0.274242    1.425328
     33          1           0       -1.375728    2.561779    0.682977
     34          1           0       -5.260607    0.300996   -1.072175
     35          1           0       -4.613774    2.599158    0.890298
     36          1           0       -4.100373    3.152971   -0.771036
 ---------------------------------------------------------------------

 SCF Done:  E(RB3LYP) =  -696.597588876     A.U. after    1 cycles

 The electronic state is 1-A.
 Alpha  occ. eigenvalues --  -10.21094 -10.20276 -10.20096 -10.19819 -10.19492
 Alpha  occ. eigenvalues --  -10.19454 -10.19346 -10.18851 -10.18815 -10.18790
 Alpha  occ. eigenvalues --  -10.18465 -10.18432 -10.18395 -10.18258 -10.17840
 Alpha  occ. eigenvalues --  -10.17754 -10.17678 -10.17601  -0.87144  -0.86455
 Alpha  occ. eigenvalues --   -0.83497  -0.80055  -0.78501  -0.75592  -0.73438
 Alpha  occ. eigenvalues --   -0.70268  -0.68300  -0.63393  -0.62359  -0.60044
 Alpha  occ. eigenvalues --   -0.58837  -0.55684  -0.54931  -0.53676  -0.51931
 Alpha  occ. eigenvalues --   -0.50636  -0.49761  -0.48561  -0.46724  -0.43974
 Alpha  occ. eigenvalues --   -0.43816  -0.42905  -0.42792  -0.41093  -0.40767
 Alpha  occ. eigenvalues --   -0.39440  -0.38964  -0.37637  -0.37375  -0.36682
 Alpha  occ. eigenvalues --   -0.36164  -0.34937  -0.34132  -0.33435  -0.33166
 Alpha  occ. eigenvalues --   -0.32440  -0.31451  -0.28258  -0.27971  -0.26017
 Alpha  occ. eigenvalues --   -0.23059  -0.21905  -0.18888
 Alpha virt. eigenvalues --   -0.07803  -0.03597   0.01856   0.02232   0.08012
 Alpha virt. eigenvalues --    0.08407   0.09511   0.10661   0.11744   0.11990
 Alpha virt. eigenvalues --    0.12367   0.13335   0.13966   0.14218   0.14711

 Mulliken charges:
               1
     1  C   -0.390236
     2  C   -0.188318
     3  C   -0.110161
     4  C   -0.084823
     5  C   -0.131775
     6  C   -0.163917
     7  C    0.199205
     8  C   -0.142906
     9  C   -0.137264
    10  C   -0.182801
    11  C    0.154616
    12  C   -0.169263
    13  C   -0.159546
    14  C   -0.192136
    15  C    0.070339
    16  C    0.391605
    17  C   -0.274153
    18  C   -0.373994
    19  H    0.113753
    20  H    0.121865
    21  H    0.115231
    22  H    0.100244
    23  H    0.106668
    24  H    0.091345
    25  H    0.112325
    26  H    0.099417
    27  H    0.099058
    28  H    0.099002
    29  H    0.099707
    30  H    0.100160
    31  H    0.087716
    32  H    0.107950
    33  H    0.107048
    34  H    0.134696
    35  H    0.095142
    36  H    0.094200
 Sum of Mulliken charges =  -0.00000

 Dipole moment (field-independent basis, Debye):
    X=              0.0489    Y=             -1.2272    Z=             -0.2984  Tot=              1.2640
 Quadrupole moment (field-independent basis, Debye-Ang):
   XX=           -103.8556   YY=           -101.6333   ZZ=           -108.4088
   XY=              2.9602   XZ=              0.1547   YZ=             -1.6408

  Exact polarizability: 345.290  10.467 196.657   5.502   0.633 106.476
 Approx polarizability: 541.702  56.121 328.666  19.717   2.167 191.208

                      1                      2                      3
                      A                      A                      A
 Frequencies --     42.5943                59.0941                94.1418
 Red. masses --      3.8609                 4.5103                 2.9662
 Frc consts  --      0.0041                 0.0093                 0.0155
 IR Inten    --      0.2185                 0.1272                 0.5273

                      4                      5                      6
                      A                      A                      A
 Frequencies --     97.4765               118.2954               129.7402
 Red. masses --      2.8893                 3.0839                 3.3399
 Frc consts  --      0.0162                 0.0254                 0.0331
 IR Inten    --      0.0711                 0.0667                 2.3109

                      7                      8                      9
                      A                      A                      A
 Frequencies --    147.9539               155.0284               175.4210
 Red. masses --      3.7500                 2.2282                 2.4747
 Frc consts  --      0.0484                 0.0316                 0.0449
 IR Inten    --      0.0675                 1.2656                 0.1714

                     10                     11                     12
                      A                      A                      A
 Frequencies --    196.5058               238.6001               250.4116
 Red. masses --      1.8538                 3.6438                 2.0547
 Frc consts  --      0.0422                 0.1222                 0.0759
 IR Inten    --      0.3390                 0.2436                 0.3386

                     13                     14                     15
                      A                      A                      A
 Frequencies --    274.8802               301.2496               316.6796
 Red. masses --      2.9441                 2.5574                 3.4392
 Frc consts  --      0.1311                 0.1367                 0.2032
 IR Inten    --      7.7850                 4.1409                 4.2615

                     16                     17                     18
                      A                      A                      A
 Frequencies --    339.9422               358.4477               377.8069
 Red. masses --      3.1812                 3.6748                 3.4279
 Frc consts  --      0.2166                 0.2782                 0.2883
 IR Inten    --      3.7099                 4.6000                 0.8502

                     19                     20                     21
                      A                      A                      A
 Frequencies --    425.1725               448.6547               477.7128
 Red. masses --      3.4639                 3.2843                 3.3140
 Frc consts  --      0.3689                 0.3895                 0.4456
 IR Inten    --      1.7515                 7.8114                 1.3535

                     22                     23                     24
                      A                      A                      A
 Frequencies --    510.8088               546.6433               568.2132
 Red. masses --      3.9301                 3.7580                 3.0074
 Frc consts  --      0.6042                 0.6616                 0.5721
 IR Inten    --      3.6329                 4.1449                 0.8939

                     25                     26                     27
                      A                      A                      A
 Frequencies --    600.6678               659.2515               689.8817
 Red. masses --      3.0597                 2.8270                 3.4305
 Frc consts  --      0.6504                 0.7239                 0.9620
 IR Inten    --      3.4552                12.5562                 5.9916

                     28                     29                     30
                      A                      A                      A
 Frequencies --    697.3296               725.3160               741.1586
 Red. masses --      2.3000                 1.9609                 2.2484
 Frc consts  --      0.6590                 0.6078                 0.7277
 IR Inten    --     11.8454                11.9744                18.9036

                     31                     32                     33
                      A                      A                      A
 Frequencies --    769.1231               792.5474               801.8515
 Red. masses --      1.9255                 2.1282                 2.4529
 Frc consts  --      0.6711                 0.7876                 0.9292
 IR Inten    --     13.7466                10.1120                 6.1388

                     34                     35                     36
                      A                      A                      A
 Frequencies --    818.8363               825.3305               849.3721
 Red. masses --      2.1985                 2.7551                 1.8901
 Frc consts  --      0.8685                 1.1057                 0.8034
 IR Inten    --      9.1155                 5.9981                29.9595

                     37                     38                     39
                      A                      A                      A
 Frequencies --    881.1225               884.8576               907.9019
 Red. masses --      1.8651                 1.4782                 1.9713
 Frc consts  --      0.8532                 0.6819                 0.9574
 IR Inten    --      5.3401                 0.3523                 8.2748

                     40                     41                     42
                      A                      A                      A
 Frequencies --    914.2277               924.3790               933.2527
 Red. masses --      1.8318                 1.5034                 1.8648
 Frc consts  --      0.9021                 0.7569                 0.9569
 IR Inten    --      9.3683                 2.2435                 5.2977

                     43                     44                     45
                      A                      A                      A
 Frequencies --    986.3252              1006.9309              1010.3950
 Red. masses --      1.8287                 1.5642                 1.1558
 Frc consts  --      1.0482                 0.9344                 0.6952
 IR Inten    --      6.0810                24.7963                 0.4845

                     46                     47                     48
                      A                      A                      A
 Frequencies --   1012.1284              1020.9551              1028.5492
 Red. masses --      1.4114                 1.4982                 1.2204
 Frc consts  --      0.8519                 0.9201                 0.7607
 IR Inten    --      1.4307                 9.6883                39.2494

                     49                     50                     51
                      A                      A                      A
 Frequencies --   1058.2809              1063.8775              1080.2805
 Red. masses --      1.7696                 1.4041                 2.0866
 Frc consts  --      1.1677                 0.9363                 1.4347
 IR Inten    --      4.0229                39.8642                 3.4718

                     52                     53                     54
                      A                      A                      A
 Frequencies --   1093.1352              1101.6959              1108.9331
 Red. masses --      2.4289                 1.3145                 2.3372
 Frc consts  --      1.7101                 0.9400                 1.6934
 IR Inten    --     10.3626                 2.7035                 1.2496

                     55                     56                     57
                      A                      A                      A
 Frequencies --   1121.2662              1132.6188              1138.4072
 Red. masses --      1.3458                 2.6378                 3.1420
 Frc consts  --      0.9969                 1.9937                 2.3991
 IR Inten    --      2.4122                 3.3607                 9.9793

                     58                     59                     60
                      A                      A                      A
 Frequencies --   1151.2063              1202.4380              1233.0319
 Red. masses --      2.6068                 3.1047                 1.5558
 Frc consts  --      2.0355                 2.6448                 1.3936
 IR Inten    --      3.9972                 3.3876                 5.9958

                     61                     62                     63
                      A                      A                      A
 Frequencies --   1258.6005              1273.8613              1284.0221
 Red. masses --      1.7231                 1.3432                 1.8788
 Frc consts  --      1.6082                 1.2842                 1.8250
 IR Inten    --     11.1263                 0.4433                 1.1117

                     64                     65                     66
                      A                      A                      A
 Frequencies --   1302.7233              1319.0834              1333.8307
 Red. masses --      1.4869                 1.3903                 1.3771
 Frc consts  --      1.4868                 1.4253                 1.4435
 IR Inten    --      2.1734                 4.4708                 0.4284

                     67                     68                     69
                      A                      A                      A
 Frequencies --   1338.2052              1339.3840              1359.7827
 Red. masses --      1.3034                 1.3951                 1.4975
 Frc consts  --      1.3752                 1.4746                 1.6314
 IR Inten    --      0.7767                 5.0121                 2.0270

                     70                     71                     72
                      A                      A                      A
 Frequencies --   1368.6948              1379.4838              1407.0722
 Red. masses --      1.7267                 1.4624                 1.6821
 Frc consts  --      1.9058                 1.6397                 1.9622
 IR Inten    --     16.9765                 1.7321                 1.5072

                     73                     74                     75
                      A                      A                      A
 Frequencies --   1412.2754              1491.7453              1497.5020
 Red. masses --      1.2245                 1.0652                 1.0408
 Frc consts  --      1.4390                 1.3966                 1.3752
 IR Inten    --      3.2351                 4.9909                 4.4403

                     76                     77                     78
                      A                      A                      A
 Frequencies --   1508.6579              1521.6456              1524.8607
 Red. masses --      1.0626                 1.1415                 5.9760
 Frc consts  --      1.4250                 1.5573                 8.1869
 IR Inten    --      3.8262                20.2898                35.2133

                     79                     80                     81
                      A                      A                      A
 Frequencies --   1605.7705              1627.9299              1634.2793
 Red. masses --      5.6456                 6.6458                 7.4768
 Frc consts  --      8.5768                10.3769                11.7658
 IR Inten    --      4.1334                 2.4319                56.9457

                     82                     83                     84
                      A                      A                      A
 Frequencies --   1683.7135              1695.1273              1825.1620
 Red. masses --      6.3289                 5.6870                 7.4232
 Frc consts  --     10.5710                 9.6280                14.5696
 IR Inten    --     44.7318                25.1050                18.9117

                     85                     86                     87
                      A                      A                      A
 Frequencies --   2984.9193              3026.9619              3033.7333
 Red. masses --      1.0804                 1.0476                 1.0586
 Frc consts  --      5.6716                 5.6552                 5.7404
 IR Inten    --     14.7031                94.4281                 9.8896

                     88                     89                     90
                      A                      A                      A
 Frequencies --   3036.3645              3072.4140              3087.0443
 Red. masses --      1.0414                 1.0978                 1.1154
 Frc consts  --      5.6569                 6.1057                 6.2628
 IR Inten    --     37.8636                 9.4028                45.7093

                     91                     92                     93
                      A                      A                      A
 Frequencies --   3100.2417              3103.9673              3114.6734
 Red. masses --      1.1011                 1.0845                 1.1004
 Frc consts  --      6.2356                 6.1565                 6.2895
 IR Inten    --     31.0889                25.4659                33.1625

                     94                     95                     96
                      A                      A                      A
 Frequencies --   3116.7970              3129.1878              3139.1798
 Red. masses --      1.0873                 1.0864                 1.0872
 Frc consts  --      6.2235                 6.2674                 6.3121
 IR Inten    --     15.6708                11.6936                18.7936

                     97                     98                     99
                      A                      A                      A
 Frequencies --   3163.9837              3202.9816              3203.3514
 Red. masses --      1.0876                 1.0858                 1.0901
 Frc consts  --      6.4146                 6.5632                 6.5903
 IR Inten    --      7.3140                14.7004                 7.0478

                    100                    101                    102
                      A                      A                      A
 Frequencies --   3214.7999              3236.3660              3286.7753
 Red. masses --      1.0892                 1.1051                 1.1140
 Frc consts  --      6.6323                 6.8200                 7.0903
 IR Inten    --      7.9147                20.6675                 3.4104

 - Thermochemistry -
 -------------------
 Temperature   298.150 Kelvin.  Pressure   1.00000 Atm.
 Atom     1 has atomic number  6 and mass  12.00000

 Molecular mass:   234.14085 amu.
 Principal axes and moments of inertia in atomic units:
                           1         2         3
     Eigenvalues --  2217.540967270.538329160.22068
           X            0.99997   0.00713  -0.00136
           Y           -0.00714   0.99995  -0.00701
           Z            0.00131   0.00702   0.99997
 This molecule is an asymmetric top.
 Rotational symmetry number  1.
 Warning -- assumption of classical behavior for rotation
           may cause significant error
 Rotational temperatures (Kelvin)      0.03906     0.01191     0.00946
 Rotational constants (GHZ):           0.81385     0.24823     0.19702
 Zero-point vibrational energy     788730.8 (Joules/Mol)
                                  188.51119 (Kcal/Mol)
 Warning -- explicit consideration of  25 degrees of freedom as
           vibrations may cause significant error
 Vibrational temperatures:     61.28    85.02   135.45   140.25   170.20
          (Kelvin)            186.67   212.87   223.05   252.39   282.73
                              343.29   360.29   395.49   433.43   455.63
                              489.10   515.73   543.58   611.73   645.51
                              687.32   734.94   786.50   817.53   864.23
                              948.52   992.59  1003.30  1043.57  1066.36
                             1106.60  1140.30  1153.69  1178.12  1187.47
                             1222.06  1267.74  1273.11  1306.27  1315.37
                             1329.98  1342.74  1419.10  1448.75  1453.73
                             1456.23  1468.93  1479.85  1522.63  1530.68
                             1554.28  1572.78  1585.09  1595.51  1613.25
                             1629.59  1637.91  1656.33  1730.04  1774.06
                             1810.85  1832.80  1847.42  1874.33  1897.87
                             1919.08  1925.38  1927.07  1956.42  1969.25
                             1984.77  2024.46  2031.95  2146.29  2154.57
                             2170.62  2189.31  2193.93  2310.35  2342.23
                             2351.36  2422.49  2438.91  2626.00  4294.63
                             4355.12  4364.87  4368.65  4420.52  4441.57
                             4460.56  4465.92  4481.32  4484.38  4502.20
                             4516.58  4552.27  4608.38  4608.91  4625.38
                             4656.41  4728.94

 Zero-point correction=                           0.300412 (Hartree/Particle)
 Thermal correction to Energy=                    0.317065
 Thermal correction to Enthalpy=                  0.318009
 Thermal correction to Gibbs Free Energy=         0.256634
 Sum of electronic and zero-point Energies=           -696.297177
 Sum of electronic and thermal Energies=              -696.280524
 Sum of electronic and thermal Enthalpies=            -696.279580
 Sum of electronic and thermal Free Energies=         -696.340955

                     E (Thermal)             CV                S
                      KCal/Mol        Cal/Mol-Kelvin    Cal/Mol-Kelvin
 Total                  198.961             65.593            129.174
 Electronic               0.000              0.000              0.000
 Translational            0.889              2.981             42.254
 Rotational               0.889              2.981             33.357
 Vibrational            197.184             59.631             53.564
 Vibration     1          0.595              1.980              5.135
 Vibration     2          0.596              1.974              4.487
 Vibration     3          0.603              1.953              3.572
 Vibration     4          0.603              1.951              3.504
 Vibration     5          0.608              1.934              3.128
 Vibration     6          0.612              1.924              2.950
 Vibration     7          0.617              1.905              2.698
 Vibration     8          0.620              1.897              2.610
 Vibration     9          0.627              1.873              2.377
 Vibration    10          0.636              1.845              2.166
 Vibration    11          0.657              1.781              1.813
 Vibration    12          0.663              1.762              1.728
 Vibration    13          0.677              1.720              1.565
 Vibration    14          0.693              1.671              1.410
 Vibration    15          0.704              1.642              1.327
 Vibration    16          0.720              1.596              1.212
 Vibration    17          0.733              1.558              1.129
 Vibration    18          0.748              1.517              1.048
 Vibration    19          0.787              1.415              0.875
 Vibration    20          0.808              1.364              0.800
 Vibration    21          0.834              1.299              0.716
 Vibration    22          0.866              1.226              0.632
 Vibration    23          0.902              1.147              0.551
 Vibration    24          0.924              1.100              0.508
 Vibration    25          0.959              1.030              0.449

 Optimization completed.
    -- Stationary point found.
 Normal termination of Gaussian 16 at Fri May 19 02:47:52 2023.
