 Gaussian 16, Revision A.03,
 Gaussian 16:  ES64L-G16RevA.03 25-Dec-2016

 -----------------------------
 # opt freq b3lyp/6-31g(2df,p)
 -----------------------------

 -------------------
 Title Card Required
 -------------------
 Symbolic Z-matrix:
 Charge =  0 Multiplicity = 1

 SCF Done:  E(RB3LYP) =  -712.887669774     A.U. after   16 cycles
 SCF Done:  E(RB3LYP) =  -712.927813898     A.U. after   14 cycles
 SCF Done:  E(RB3LYP) =  -712.962896196     A.U. after   13 cycles
 SCF Done:  E(RB3LYP) =  -712.977951188     A.U. after   13 cycles
 SCF Done:  E(RB3LYP) =  -712.985745021     A.U. after   13 cycles
 SCF Done:  E(RB3LYP) =  -712.988133125     A.U. after   15 cycles
 SCF Done:  E(RB3LYP) =  -712.990782332     A.U. after   13 cycles
 SCF Done:  E(RB3LYP) =  -712.995397057     A.U. after   13 cycles
 SCF Done:  E(RB3LYP) =  -712.993221131     A.U. after   15 cycles
 SCF Done:  E(RB3LYP) =  -713.001101501     A.U. after   13 cycles
 SCF Done:  E(RB3LYP) =  -713.011780365     A.U. after    6 cycles
 SCF Done:  E(RB3LYP) =  -713.011780378     A.U. after    7 cycles
 SCF Done:  E(RB3LYP) =  -713.011780387     A.U. after    7 cycles
 SCF Done:  E(RB3LYP) =  -713.011780395     A.U. after    8 cycles
 SCF Done:  E(RB3LYP) =  -713.011780401     A.U. after    9 cycles
 SCF Done:  E(RB3LYP) =  -713.011780410     A.U. after    9 cycles
 SCF Done:  E(RB3LYP) =  -713.011780435     A.U. after    8 cycles
 SCF Done:  E(RB3LYP) =  -713.011780465     A.U. after    7 cycles
 SCF Done:  E(RB3LYP) =  -713.011780496     A.U. after    6 cycles
 Optimization completed.
    -- Stationary point found.
 Normal termination of Gaussian 16 at Sat May 20 06:26:58 2023.

 ----------------------------------------------------------------------
 #N Geom=AllCheck Guess=TCheck SCRF=Check GenChk RB3LYP/6-31G(2df,p) Fr
 eq
 ----------------------------------------------------------------------

 Structure from the checkpoint file:  "CCC1CdCCdC2CqCrdCNdCqCqCrdOrC21C.chk"
 -------------------
 Title Card Required
 -------------------
 Charge =  0 Multiplicity = 1

                         Standard orientation:
 ---------------------------------------------------------------------
 Center     Atomic      Atomic             Coordinates (Angstroms)
 Number     Number       Type             X           Y           Z
 ---------------------------------------------------------------------
      1          6           0        3.575566   -1.545829   -0.136638
      2          6           0        2.345448   -1.087583    0.653190
      3          6           0        1.039890   -1.118825   -0.188423
      4          6           0        0.599371   -2.552525   -0.347597
      5          6           0       -0.681939   -2.928566   -0.452796
      6          6           0       -1.735329   -1.941467   -0.420170
      7          6           0       -1.497182   -0.637884   -0.138869
      8          6           0       -2.561262    0.343181   -0.095307
      9          6           0       -4.004028   -0.056243   -0.247000
     10          6           0       -2.222169    1.650289    0.052233
     11          7           0       -0.925968    2.117775   -0.035231
     12          6           0        0.073188    1.300893   -0.014758
     13          6           0        1.376871    1.975891   -0.375783
     14          6           0        1.471446    3.464600   -0.092328
     15          8           0        2.297468    1.384486   -0.906335
     16          6           0       -0.102251   -0.188302    0.349719
     17          6           0       -0.183538   -0.251781    1.910017
     18          1           0        4.464875   -1.546995    0.501604
     19          1           0        3.759979   -0.867285   -0.973815
     20          1           0        3.463870   -2.559082   -0.537235
     21          1           0        2.536541   -0.076246    1.013199
     22          1           0        2.216548   -1.719696    1.540270
     23          1           0        1.308032   -0.756691   -1.190401
     24          1           0        1.387619   -3.294451   -0.433427
     25          1           0       -0.946873   -3.970410   -0.601758
     26          1           0       -2.749647   -2.270106   -0.619855
     27          1           0       -4.291810   -0.815289    0.488934
     28          1           0       -4.202141   -0.479128   -1.238815
     29          1           0       -4.658087    0.809866   -0.120060
     30          1           0       -2.983225    2.422456    0.115279
     31          1           0        1.294084    3.667775    0.968480
     32          1           0        0.701563    4.007673   -0.643717
     33          1           0        2.465117    3.808710   -0.381654
     34          1           0       -1.018770    0.350985    2.272730
     35          1           0        0.732548    0.118367    2.375710
     36          1           0       -0.342678   -1.285848    2.228885
 ---------------------------------------------------------------------

 SCF Done:  E(RB3LYP) =  -713.011780496     A.U. after    1 cycles

 The electronic state is 1-A.
 Alpha  occ. eigenvalues --  -19.12734 -14.33155 -10.26746 -10.22951 -10.21433
 Alpha  occ. eigenvalues --  -10.20667 -10.20259 -10.19635 -10.19251 -10.19025
 Alpha  occ. eigenvalues --  -10.18949 -10.18870 -10.18411 -10.17832 -10.17490
 Alpha  occ. eigenvalues --  -10.17445 -10.16427  -1.03730  -0.94334  -0.85437
 Alpha  occ. eigenvalues --   -0.81288  -0.77692  -0.76980  -0.74007  -0.71779
 Alpha  occ. eigenvalues --   -0.69802  -0.68035  -0.64410  -0.61482  -0.60749
 Alpha  occ. eigenvalues --   -0.57899  -0.54267  -0.51634  -0.49948  -0.48658
 Alpha  occ. eigenvalues --   -0.46571  -0.46097  -0.44802  -0.44014  -0.43034
 Alpha  occ. eigenvalues --   -0.42588  -0.42104  -0.41307  -0.41222  -0.40040
 Alpha  occ. eigenvalues --   -0.39308  -0.38653  -0.38361  -0.37764  -0.36528
 Alpha  occ. eigenvalues --   -0.36209  -0.35967  -0.34955  -0.34313  -0.32919
 Alpha  occ. eigenvalues --   -0.32193  -0.31736  -0.30487  -0.26903  -0.26027
 Alpha  occ. eigenvalues --   -0.22989  -0.19813
 Alpha virt. eigenvalues --   -0.08189  -0.02567   0.02786   0.07110   0.08977
 Alpha virt. eigenvalues --    0.09992   0.10839   0.10993   0.12622   0.12959
 Alpha virt. eigenvalues --    0.13860   0.14445   0.14642   0.15737   0.16361

 Mulliken charges:
               1
     1  C   -0.402046
     2  C   -0.181015
     3  C   -0.076601
     4  C   -0.073446
     5  C   -0.102304
     6  C   -0.206519
     7  C    0.175813
     8  C    0.252927
     9  C   -0.502704
    10  C   -0.118879
    11  N   -0.279675
    12  C    0.168233
    13  C    0.323499
    14  C   -0.462563
    15  O   -0.314196
    16  C   -0.024625
    17  C   -0.416368
    18  H    0.108188
    19  H    0.143645
    20  H    0.109285
    21  H    0.103551
    22  H    0.087652
    23  H    0.112843
    24  H    0.101084
    25  H    0.091988
    26  H    0.093677
    27  H    0.132554
    28  H    0.138235
    29  H    0.125904
    30  H    0.099922
    31  H    0.134221
    32  H    0.158679
    33  H    0.127653
    34  H    0.124701
    35  H    0.119754
    36  H    0.126933
 Sum of Mulliken charges =  -0.00000

 Dipole moment (field-independent basis, Debye):
    X=             -2.1468    Y=             -1.1563    Z=              1.0876  Tot=              2.6699
 Quadrupole moment (field-independent basis, Debye-Ang):
   XX=            -98.9530   YY=            -97.7565   ZZ=           -103.0018
   XY=              0.2139   XZ=              3.5107   YZ=              2.1790

  Exact polarizability: 213.694   3.082 208.301   0.690  10.277 107.579
 Approx polarizability: 336.957   1.951 363.238  -5.862  26.466 180.289

                      1                      2                      3
                      A                      A                      A
 Frequencies --     15.9618                65.0498                80.6426
 Red. masses --      3.2026                 4.4950                 3.2860
 Frc consts  --      0.0005                 0.0112                 0.0126
 IR Inten    --      3.9651                 0.3320                 0.8179

                      4                      5                      6
                      A                      A                      A
 Frequencies --    114.3236               117.2885               152.9621
 Red. masses --      2.6484                 1.1977                 2.9334
 Frc consts  --      0.0204                 0.0097                 0.0404
 IR Inten    --      0.6140                 0.3355                 0.8184

                      7                      8                      9
                      A                      A                      A
 Frequencies --    176.4497               194.6921               200.3210
 Red. masses --      3.4059                 1.3198                 1.3028
 Frc consts  --      0.0625                 0.0295                 0.0308
 IR Inten    --      1.0528                 0.1190                 0.9625

                     10                     11                     12
                      A                      A                      A
 Frequencies --    210.6373               224.9022               257.2565
 Red. masses --      3.4891                 1.9919                 2.2556
 Frc consts  --      0.0912                 0.0594                 0.0880
 IR Inten    --      3.2525                 0.9176                 0.1542

                     13                     14                     15
                      A                      A                      A
 Frequencies --    266.2818               279.5381               293.5357
 Red. masses --      2.6774                 1.5585                 2.0583
 Frc consts  --      0.1119                 0.0718                 0.1045
 IR Inten    --      0.7371                 0.2005                 0.7798

                     16                     17                     18
                      A                      A                      A
 Frequencies --    317.4926               332.5174               338.3593
 Red. masses --      3.1890                 3.2590                 2.7871
 Frc consts  --      0.1894                 0.2123                 0.1880
 IR Inten    --      1.7536                 0.8867                 0.1087

                     19                     20                     21
                      A                      A                      A
 Frequencies --    391.2518               404.8720               462.6394
 Red. masses --      3.8151                 3.3577                 3.0929
 Frc consts  --      0.3441                 0.3243                 0.3900
 IR Inten    --      0.7611                 0.7785                 1.2986

                     22                     23                     24
                      A                      A                      A
 Frequencies --    486.6067               496.7258               528.2657
 Red. masses --      5.0876                 4.4459                 3.6618
 Frc consts  --      0.7098                 0.6463                 0.6021
 IR Inten    --      2.1047                 4.5345                 3.3816

                     25                     26                     27
                      A                      A                      A
 Frequencies --    547.0168               573.2306               592.2004
 Red. masses --      3.2706                 3.3033                 3.8515
 Frc consts  --      0.5766                 0.6395                 0.7958
 IR Inten    --     15.3356                 4.2001                10.0628

                     28                     29                     30
                      A                      A                      A
 Frequencies --    667.6431               679.7329               697.2904
 Red. masses --      3.5106                 2.5673                 4.0345
 Frc consts  --      0.9220                 0.6989                 1.1558
 IR Inten    --      6.9637                11.8966                 8.8327

                     31                     32                     33
                      A                      A                      A
 Frequencies --    722.9755               751.3732               763.1883
 Red. masses --      3.7023                 4.2103                 1.5814
 Frc consts  --      1.1402                 1.4005                 0.5427
 IR Inten    --      5.8079                 0.1742                14.4490

                     34                     35                     36
                      A                      A                      A
 Frequencies --    783.8773               855.9535               863.8578
 Red. masses --      1.4955                 3.0005                 2.3686
 Frc consts  --      0.5414                 1.2952                 1.0414
 IR Inten    --      2.3124                10.1330                 2.3426

                     37                     38                     39
                      A                      A                      A
 Frequencies --    890.8589               921.8120               934.9809
 Red. masses --      1.3943                 1.4533                 2.4534
 Frc consts  --      0.6520                 0.7276                 1.2636
 IR Inten    --     15.1062                11.5843                20.1391

                     40                     41                     42
                      A                      A                      A
 Frequencies --    961.0949               965.8250               983.0501
 Red. masses --      2.1745                 1.8529                 1.3201
 Frc consts  --      1.1834                 1.0183                 0.7517
 IR Inten    --      7.2195                17.7900                 0.9875

                     43                     44                     45
                      A                      A                      A
 Frequencies --    998.6859              1017.3999              1029.8632
 Red. masses --      1.8111                 2.1492                 1.8251
 Frc consts  --      1.0643                 1.3107                 1.1405
 IR Inten    --      7.6984                 1.9326                 5.9367

                     46                     47                     48
                      A                      A                      A
 Frequencies --   1041.8350              1051.4843              1060.7646
 Red. masses --      2.2114                 1.8620                 1.5749
 Frc consts  --      1.4142                 1.2129                 1.0441
 IR Inten    --      1.1546                 7.1509                 1.5683

                     49                     50                     51
                      A                      A                      A
 Frequencies --   1071.0767              1078.3644              1120.2830
 Red. masses --      2.4946                 2.3046                 2.1616
 Frc consts  --      1.6861                 1.5790                 1.5984
 IR Inten    --      1.2100                 1.7420                 2.3496

                     52                     53                     54
                      A                      A                      A
 Frequencies --   1139.4502              1156.2190              1180.5629
 Red. masses --      2.4797                 2.3752                 2.4334
 Frc consts  --      1.8969                 1.8708                 1.9982
 IR Inten    --     12.1535                23.3862                21.6276

                     55                     56                     57
                      A                      A                      A
 Frequencies --   1199.5289              1226.5426              1263.5984
 Red. masses --      2.6946                 1.4745                 1.4970
 Frc consts  --      2.2844                 1.3069                 1.4083
 IR Inten    --      5.3131                21.1160                24.4491

                     58                     59                     60
                      A                      A                      A
 Frequencies --   1274.8255              1286.7265              1317.1886
 Red. masses --      2.3093                 2.5065                 1.2118
 Frc consts  --      2.2112                 2.4450                 1.2387
 IR Inten    --     52.2524                91.7455                 0.5481

                     61                     62                     63
                      A                      A                      A
 Frequencies --   1341.5109              1353.6406              1376.0518
 Red. masses --      1.3800                 1.5410                 1.4417
 Frc consts  --      1.4633                 1.6637                 1.6084
 IR Inten    --      5.4955                 1.8672                 6.3789

                     64                     65                     66
                      A                      A                      A
 Frequencies --   1377.3967              1395.2366              1409.4643
 Red. masses --      1.2973                 1.2135                 1.2564
 Frc consts  --      1.4502                 1.3918                 1.4706
 IR Inten    --     44.2948                 6.5199                 7.4714

                     67                     68                     69
                      A                      A                      A
 Frequencies --   1410.6493              1418.5620              1433.8839
 Red. masses --      1.2675                 2.2574                 1.6225
 Frc consts  --      1.4860                 2.6764                 1.9654
 IR Inten    --      0.7318                 6.4391                 0.6795

                     70                     71                     72
                      A                      A                      A
 Frequencies --   1458.4841              1465.4939              1478.7425
 Red. masses --      1.0516                 1.0539                 1.0515
 Frc consts  --      1.3180                 1.3335                 1.3547
 IR Inten    --     12.0595                 7.3124                 6.1288

                     73                     74                     75
                      A                      A                      A
 Frequencies --   1484.2880              1489.7489              1494.1643
 Red. masses --      1.0685                 1.0998                 1.0991
 Frc consts  --      1.3870                 1.4381                 1.4457
 IR Inten    --      1.2884                 7.8443                 8.7140

                     76                     77                     78
                      A                      A                      A
 Frequencies --   1498.6272              1502.2092              1509.1348
 Red. masses --      1.0435                 1.0593                 1.0597
 Frc consts  --      1.3808                 1.4084                 1.4219
 IR Inten    --      2.6129                 6.6839                 3.2031

                     79                     80                     81
                      A                      A                      A
 Frequencies --   1551.4880              1617.0952              1638.3497
 Red. masses --      5.7442                 7.7050                 6.8512
 Frc consts  --      8.1465                11.8711                10.8350
 IR Inten    --     70.8598                21.7922                 3.9905

                     82                     83                     84
                      A                      A                      A
 Frequencies --   1695.5988              1761.8822              3010.1801
 Red. masses --      5.9806                11.0164                 1.0791
 Frc consts  --     10.1307                20.1485                 5.7610
 IR Inten    --      7.4991               155.9445                 1.2998

                     85                     86                     87
                      A                      A                      A
 Frequencies --   3027.9470              3033.1973              3037.0990
 Red. masses --      1.0375                 1.0686                 1.0375
 Frc consts  --      5.6043                 5.7928                 5.6385
 IR Inten    --     27.5821                23.9044                27.2044

                     88                     89                     90
                      A                      A                      A
 Frequencies --   3049.0010              3053.6166              3080.2826
 Red. masses --      1.0350                 1.0367                 1.0990
 Frc consts  --      5.6690                 5.6955                 6.1438
 IR Inten    --     20.9183                 3.3277                13.2985

                     91                     92                     93
                      A                      A                      A
 Frequencies --   3092.4347              3114.5839              3117.1132
 Red. masses --      1.0985                 1.0941                 1.0997
 Frc consts  --      6.1897                 6.2536                 6.2957
 IR Inten    --     20.2337                14.4258                14.5091

                     94                     95                     96
                      A                      A                      A
 Frequencies --   3122.6693              3125.2310              3126.3504
 Red. masses --      1.1017                 1.0952                 1.0999
 Frc consts  --      6.3295                 6.3022                 6.3339
 IR Inten    --      5.4348                 5.8562                32.2556

                     97                     98                     99
                      A                      A                      A
 Frequencies --   3131.5929              3159.2807              3163.6410
 Red. masses --      1.1016                 1.1049                 1.0830
 Frc consts  --      6.3649                 6.4973                 6.3862
 IR Inten    --     12.4097                15.5434                 2.6999

                    100                    101                    102
                      A                      A                      A
 Frequencies --   3167.5414              3180.2147              3192.0996
 Red. masses --      1.0903                 1.0905                 1.0953
 Frc consts  --      6.4452                 6.4981                 6.5755
 IR Inten    --     25.1799                25.1295                23.8575

 - Thermochemistry -
 -------------------
 Temperature   298.150 Kelvin.  Pressure   1.00000 Atm.
 Atom     1 has atomic number  6 and mass  12.00000

 Molecular mass:   229.14666 amu.
 Principal axes and moments of inertia in atomic units:
                           1         2         3
     Eigenvalues --  2954.208783672.613585916.24844
           X            0.99938  -0.03468   0.00561
           Y            0.03465   0.99939   0.00444
           Z           -0.00576  -0.00424   0.99997
 This molecule is an asymmetric top.
 Rotational symmetry number  1.
 Warning -- assumption of classical behavior for rotation
           may cause significant error
 Rotational temperatures (Kelvin)      0.02932     0.02358     0.01464
 Rotational constants (GHZ):           0.61091     0.49141     0.30505
 Zero-point vibrational energy     802842.1 (Joules/Mol)
                                  191.88386 (Kcal/Mol)
 Warning -- explicit consideration of  27 degrees of freedom as
           vibrations may cause significant error
 Vibrational temperatures:     22.97    93.59   116.03   164.49   168.75
          (Kelvin)            220.08   253.87   280.12   288.22   303.06
                              323.58   370.13   383.12   402.19   422.33
                              456.80   478.42   486.82   562.92   582.52
                              665.63   700.12   714.68   760.06   787.04
                              824.75   852.04   960.59   977.98  1003.25
                             1040.20  1081.06  1098.06  1127.82  1231.53
                             1242.90  1281.75  1326.28  1345.23  1382.80
                             1389.61  1414.39  1436.89  1463.81  1481.74
                             1498.97  1512.85  1526.20  1541.04  1551.53
                             1611.84  1639.41  1663.54  1698.57  1725.85
                             1764.72  1818.04  1834.19  1851.31  1895.14
                             1930.13  1947.59  1979.83  1981.77  2007.43
                             2027.90  2029.61  2040.99  2063.04  2098.43
                             2108.52  2127.58  2135.56  2143.42  2149.77
                             2156.19  2161.34  2171.31  2232.25  2326.64
                             2357.22  2439.59  2534.96  4330.98  4356.54
                             4364.09  4369.71  4386.83  4393.47  4431.84
                             4449.32  4481.19  4484.83  4492.82  4496.51
                             4498.12  4505.66  4545.50  4551.77  4557.39
                             4575.62  4592.72

 Zero-point correction=                           0.305786 (Hartree/Particle)
 Thermal correction to Energy=                    0.322663
 Thermal correction to Enthalpy=                  0.323608
 Thermal correction to Gibbs Free Energy=         0.261752
 Sum of electronic and zero-point Energies=           -712.705994
 Sum of electronic and thermal Energies=              -712.689117
 Sum of electronic and thermal Enthalpies=            -712.688173
 Sum of electronic and thermal Free Energies=         -712.750028

                     E (Thermal)             CV                S
                      KCal/Mol        Cal/Mol-Kelvin    Cal/Mol-Kelvin
 Total                  202.474             65.714            130.185
 Electronic               0.000              0.000              0.000
 Translational            0.889              2.981             42.190
 Rotational               0.889              2.981             32.529
 Vibrational            200.697             59.753             55.467
 Vibration     1          0.593              1.986              7.082
 Vibration     2          0.597              1.971              4.298
 Vibration     3          0.600              1.962              3.875
 Vibration     4          0.607              1.938              3.194
 Vibration     5          0.608              1.935              3.145
 Vibration     6          0.619              1.899              2.635
 Vibration     7          0.628              1.871              2.366
 Vibration     8          0.635              1.847              2.183
 Vibration     9          0.638              1.839              2.130
 Vibration    10          0.643              1.825              2.038
 Vibration    11          0.650              1.803              1.919
 Vibration    12          0.667              1.751              1.680
 Vibration    13          0.672              1.735              1.620
 Vibration    14          0.680              1.711              1.536
 Vibration    15          0.688              1.686              1.453
 Vibration    16          0.704              1.640              1.323
 Vibration    17          0.714              1.611              1.248
 Vibration    18          0.719              1.599              1.220
 Vibration    19          0.759              1.489              0.995
 Vibration    20          0.770              1.460              0.945
 Vibration    21          0.820              1.333              0.758
 Vibration    22          0.843              1.280              0.692
 Vibration    23          0.852              1.257              0.666
 Vibration    24          0.883              1.187              0.591
 Vibration    25          0.902              1.146              0.550
 Vibration    26          0.929              1.089              0.498
 Vibration    27          0.950              1.048              0.463

 Optimization completed.
    -- Stationary point found.
 Normal termination of Gaussian 16 at Sat May 20 11:08:40 2023.
