 Gaussian 16, Revision A.03,
 Gaussian 16:  ES64L-G16RevA.03 25-Dec-2016

 -----------------------------
 # opt freq b3lyp/6-31g(2df,p)
 -----------------------------

 -------------------
 Title Card Required
 -------------------
 Symbolic Z-matrix:
 Charge =  0 Multiplicity = 1

 SCF Done:  E(RB3LYP) =  -706.792876684     A.U. after   27 cycles
 SCF Done:  E(RB3LYP) =  -706.846561721     A.U. after   16 cycles
 SCF Done:  E(RB3LYP) =  -706.904438517     A.U. after   17 cycles
 SCF Done:  E(RB3LYP) =  -706.936093615     A.U. after   17 cycles
 SCF Done:  E(RB3LYP) =  -706.945754615     A.U. after   15 cycles
 SCF Done:  E(RB3LYP) =  -706.959481153     A.U. after   16 cycles
 SCF Done:  E(RB3LYP) =  -706.972462863     A.U. after   17 cycles
 SCF Done:  E(RB3LYP) =  -706.978940765     A.U. after   15 cycles
 SCF Done:  E(RB3LYP) =  -706.986589299     A.U. after   15 cycles
 SCF Done:  E(RB3LYP) =  -706.988690903     A.U. after   15 cycles
 SCF Done:  E(RB3LYP) =  -706.995309202     A.U. after   11 cycles
 SCF Done:  E(RB3LYP) =  -706.995410086     A.U. after   12 cycles
 SCF Done:  E(RB3LYP) =  -706.995463492     A.U. after   11 cycles
 SCF Done:  E(RB3LYP) =  -706.995510995     A.U. after   11 cycles
 SCF Done:  E(RB3LYP) =  -706.995521721     A.U. after   10 cycles
 SCF Done:  E(RB3LYP) =  -706.995525430     A.U. after   10 cycles
 SCF Done:  E(RB3LYP) =  -706.995527939     A.U. after   10 cycles
 SCF Done:  E(RB3LYP) =  -706.995528536     A.U. after    8 cycles
 SCF Done:  E(RB3LYP) =  -706.995528824     A.U. after    8 cycles
 Optimization completed.
    -- Stationary point found.
 Normal termination of Gaussian 16 at Fri May 19 04:19:54 2023.

 ----------------------------------------------------------------------
 #N Geom=AllCheck Guess=TCheck SCRF=Check GenChk RB3LYP/6-31G(2df,p) Fr
 eq
 ----------------------------------------------------------------------

 Structure from the checkpoint file:  "CCC1dCNdCC2dC3CqdC13rCqCrdCCqdOrO2.chk"
 -------------------
 Title Card Required
 -------------------
 Charge =  0 Multiplicity = 1

                         Standard orientation:
 ---------------------------------------------------------------------
 Center     Atomic      Atomic             Coordinates (Angstroms)
 Number     Number       Type             X           Y           Z
 ---------------------------------------------------------------------
      1          6           0       -3.495333   -1.953622    0.100170
      2          6           0       -3.462522   -0.478093    0.504112
      3          6           0       -2.239618    0.264061    0.030928
      4          6           0       -2.212241    1.741335    0.088499
      5          7           0       -1.218190    2.554651    0.199707
      6          6           0        0.128243    2.297869    0.346997
      7          6           0        0.867613    1.341092   -0.290140
      8          6           0        0.080489    0.333225   -0.919189
      9          6           0        0.027479   -1.020019   -1.054590
     10          6           0       -1.146145   -0.235076   -0.574214
     11          6           0        1.222585   -1.611643   -0.439618
     12          6           0        1.134281   -2.420189    0.814934
     13          6           0        2.355257   -0.966476   -0.891520
     14          6           0        2.890073   -0.031660    0.109371
     15          8           0        3.637940   -0.120497    1.027929
     16          8           0        2.239877    1.258656   -0.106634
     17          1           0       -4.407310   -2.434051    0.465036
     18          1           0       -2.641157   -2.498356    0.514586
     19          1           0       -3.462339   -2.065231   -0.987863
     20          1           0       -3.541367   -0.395280    1.597560
     21          1           0       -4.355122    0.032486    0.114303
     22          1           0       -3.191856    2.227199    0.022266
     23          1           0        0.642391    2.985770    1.016151
     24          1           0        0.274673   -2.133652    1.430036
     25          1           0        2.055784   -2.329052    1.395620
     26          1           0        1.006876   -3.479003    0.556134
     27          1           0        2.223251   -0.463476   -1.846581
 ---------------------------------------------------------------------

 SCF Done:  E(RB3LYP) =  -706.995528824     A.U. after    1 cycles

 The electronic state is 1-A.
 Alpha  occ. eigenvalues --  -19.18897 -19.14584 -14.34681 -10.32577 -10.27282
 Alpha  occ. eigenvalues --  -10.25603 -10.24996 -10.24845 -10.24679 -10.23480
 Alpha  occ. eigenvalues --  -10.23123 -10.20904 -10.20554 -10.20433 -10.19122
 Alpha  occ. eigenvalues --  -10.18755  -1.09716  -1.03629  -0.95619  -0.92906
 Alpha  occ. eigenvalues --   -0.83563  -0.82149  -0.78158  -0.73766  -0.72799
 Alpha  occ. eigenvalues --   -0.68707  -0.65857  -0.63258  -0.59460  -0.58303
 Alpha  occ. eigenvalues --   -0.53834  -0.52148  -0.51177  -0.48527  -0.47538
 Alpha  occ. eigenvalues --   -0.46502  -0.45997  -0.45717  -0.43821  -0.43512
 Alpha  occ. eigenvalues --   -0.42558  -0.40911  -0.39836  -0.38776  -0.37649
 Alpha  occ. eigenvalues --   -0.37063  -0.37021  -0.36384  -0.35522  -0.34002
 Alpha  occ. eigenvalues --   -0.32647  -0.30447  -0.28525  -0.25714  -0.24471
 Alpha  occ. eigenvalues --   -0.19873
 Alpha virt. eigenvalues --   -0.08652  -0.06916  -0.03959   0.00181   0.04730
 Alpha virt. eigenvalues --    0.05959   0.08050   0.08843   0.10395   0.11451
 Alpha virt. eigenvalues --    0.12876   0.14092   0.14364   0.15349   0.15427

 Mulliken charges:
               1
     1  C   -0.384697
     2  C   -0.281714
     3  C   -0.037406
     4  C   -0.002807
     5  N   -0.237294
     6  C   -0.050761
     7  C    0.225086
     8  C    0.088389
     9  C   -0.254999
    10  C    0.282132
    11  C    0.221530
    12  C   -0.484585
    13  C   -0.330275
    14  C    0.390701
    15  O   -0.277514
    16  O   -0.302111
    17  H    0.116892
    18  H    0.121634
    19  H    0.129537
    20  H    0.117800
    21  H    0.113431
    22  H    0.116660
    23  H    0.142147
    24  H    0.137623
    25  H    0.165048
    26  H    0.155607
    27  H    0.119948
 Sum of Mulliken charges =  -0.00000

 Dipole moment (field-independent basis, Debye):
    X=             -3.8552    Y=             -1.5423    Z=              0.0003  Tot=              4.1523
 Quadrupole moment (field-independent basis, Debye-Ang):
   XX=            -98.3244   YY=            -91.5201   ZZ=            -92.1792
   XY=              0.6391   XZ=             -5.0237   YZ=             -1.9202

  Exact polarizability: 209.735 -17.979 161.129  -8.482  11.194  99.063
 Approx polarizability: 366.067 -52.077 318.289 -30.387  52.999 191.129

                      1                      2                      3
                      A                      A                      A
 Frequencies --     39.2634                61.6682                71.8299
 Red. masses --      2.5829                 4.5207                 3.6107
 Frc consts  --      0.0023                 0.0101                 0.0110
 IR Inten    --      0.2355                 0.3172                 1.5564

                      4                      5                      6
                      A                      A                      A
 Frequencies --    106.6814               132.9180               151.1196
 Red. masses --      3.6661                 3.6023                 3.0638
 Frc consts  --      0.0246                 0.0375                 0.0412
 IR Inten    --      0.3037                 0.9389                 1.9603

                      7                      8                      9
                      A                      A                      A
 Frequencies --    174.3169               199.3127               240.6259
 Red. masses --      1.1971                 2.1260                 1.6287
 Frc consts  --      0.0214                 0.0498                 0.0556
 IR Inten    --      0.6828                 0.3065                 1.7989

                     10                     11                     12
                      A                      A                      A
 Frequencies --    249.3830               288.5874               318.9432
 Red. masses --      3.6963                 4.6791                 4.3305
 Frc consts  --      0.1354                 0.2296                 0.2595
 IR Inten    --      4.2209                 3.4624                 0.6629

                     13                     14                     15
                      A                      A                      A
 Frequencies --    357.3224               385.6310               402.0100
 Red. masses --      4.1279                 6.7257                 4.6314
 Frc consts  --      0.3105                 0.5893                 0.4410
 IR Inten    --      3.6190                 1.5214                 0.5303

                     16                     17                     18
                      A                      A                      A
 Frequencies --    431.2982               466.7184               495.7227
 Red. masses --      4.6166                 6.5080                 7.6154
 Frc consts  --      0.5060                 0.8352                 1.1026
 IR Inten    --      6.2082                 2.5007                20.4741

                     19                     20                     21
                      A                      A                      A
 Frequencies --    496.3106               523.3248               567.4667
 Red. masses --      5.7137                 4.2627                 4.6424
 Frc consts  --      0.8292                 0.6878                 0.8808
 IR Inten    --      0.5583                37.5001                10.6251

                     22                     23                     24
                      A                      A                      A
 Frequencies --    601.0238               655.5606               681.5344
 Red. masses --      4.4116                 6.5268                 7.9041
 Frc consts  --      0.9389                 1.6526                 2.1631
 IR Inten    --     15.6370                14.2883                57.4815

                     25                     26                     27
                      A                      A                      A
 Frequencies --    690.2589               718.4864               750.3432
 Red. masses --      6.6866                 6.8290                 6.8209
 Frc consts  --      1.8771                 2.0770                 2.2626
 IR Inten    --     19.3501                40.4958                58.3885

                     28                     29                     30
                      A                      A                      A
 Frequencies --    785.0411               799.8165               825.2499
 Red. masses --      1.3807                 3.9419                 6.2680
 Frc consts  --      0.5013                 1.4857                 2.5151
 IR Inten    --      4.0829                40.3057                13.7192

                     31                     32                     33
                      A                      A                      A
 Frequencies --    864.2221               923.7782               946.3580
 Red. masses --      5.3062                 1.7173                 2.5730
 Frc consts  --      2.3350                 0.8635                 1.3577
 IR Inten    --     12.6578                19.6179                79.6876

                     34                     35                     36
                      A                      A                      A
 Frequencies --    969.6411               982.7398               989.3382
 Red. masses --      1.6307                 1.5583                 1.9869
 Frc consts  --      0.9033                 0.8867                 1.1458
 IR Inten    --     23.1035               142.5985                 7.7806

                     37                     38                     39
                      A                      A                      A
 Frequencies --   1010.6554              1033.6356              1068.6396
 Red. masses --      2.6558                 2.4593                 1.6410
 Frc consts  --      1.5983                 1.5481                 1.1041
 IR Inten    --    162.9753                10.9032                27.3867

                     40                     41                     42
                      A                      A                      A
 Frequencies --   1079.1455              1097.8177              1105.8281
 Red. masses --      2.6336                 2.5663                 1.7512
 Frc consts  --      1.8070                 1.8223                 1.2617
 IR Inten    --     11.7645                31.7856                14.4286

                     43                     44                     45
                      A                      A                      A
 Frequencies --   1175.6423              1182.4891              1223.4496
 Red. masses --      2.7597                 3.6909                 3.7423
 Frc consts  --      2.2473                 3.0407                 3.3003
 IR Inten    --      1.7643               246.8062                43.1359

                     46                     47                     48
                      A                      A                      A
 Frequencies --   1269.0647              1288.1696              1340.9966
 Red. masses --      4.0521                 1.1996                 1.8267
 Frc consts  --      3.8450                 1.1729                 1.9354
 IR Inten    --     54.1783                10.1982                 1.8907

                     49                     50                     51
                      A                      A                      A
 Frequencies --   1371.1399              1379.6598              1405.5171
 Red. masses --      1.6433                 1.3521                 1.3594
 Frc consts  --      1.8202                 1.5164                 1.5822
 IR Inten    --     17.3745                 9.3347                14.5954

                     52                     53                     54
                      A                      A                      A
 Frequencies --   1413.4974              1417.0554              1441.5806
 Red. masses --      1.2495                 1.4182                 1.9978
 Frc consts  --      1.4709                 1.6779                 2.4462
 IR Inten    --      6.3616                 1.5892               201.3886

                     55                     56                     57
                      A                      A                      A
 Frequencies --   1472.5533              1476.3446              1489.4269
 Red. masses --      1.3529                 1.1883                 1.4029
 Frc consts  --      1.7284                 1.5259                 1.8337
 IR Inten    --     17.4470                14.8183                49.8513

                     58                     59                     60
                      A                      A                      A
 Frequencies --   1496.8451              1503.1413              1519.6347
 Red. masses --      1.0438                 1.0632                 2.6935
 Frc consts  --      1.3778                 1.4154                 3.6647
 IR Inten    --      5.2402                 3.0882                18.0988

                     61                     62                     63
                      A                      A                      A
 Frequencies --   1572.2747              1640.6445              1793.7631
 Red. masses --      5.4668                10.4621                10.8658
 Frc consts  --      7.9623                16.5919                20.5987
 IR Inten    --     65.4717                71.1703               334.6255

                     64                     65                     66
                      A                      A                      A
 Frequencies --   1892.3199              2999.5684              3019.5630
 Red. masses --     12.3465                 1.0594                 1.1004
 Frc consts  --     26.0485                 5.6158                 5.9112
 IR Inten    --    500.7653                34.1599                15.5579

                     67                     68                     69
                      A                      A                      A
 Frequencies --   3025.8139              3040.9200              3066.8666
 Red. masses --      1.0369                 1.0351                 1.0858
 Frc consts  --      5.5935                 5.6395                 6.0170
 IR Inten    --      6.6632                15.7625                56.6813

                     70                     71                     72
                      A                      A                      A
 Frequencies --   3081.4359              3108.3854              3116.0129
 Red. masses --      1.0971                 1.1014                 1.1021
 Frc consts  --      6.1378                 6.2701                 6.3049
 IR Inten    --      5.2388                29.8772                30.3407

                     73                     74                     75
                      A                      A                      A
 Frequencies --   3127.5932              3130.8589              3150.8356
 Red. masses --      1.1015                 1.0851                 1.0882
 Frc consts  --      6.3485                 6.2671                 6.3651
 IR Inten    --      2.8881                 7.3971                 6.5369

 - Thermochemistry -
 -------------------
 Temperature   298.150 Kelvin.  Pressure   1.00000 Atm.
 Atom     1 has atomic number  6 and mass  12.00000

 Molecular mass:   213.07898 amu.
 Principal axes and moments of inertia in atomic units:
                           1         2         3
     Eigenvalues --  1966.903524004.760665375.67855
           X            0.99978   0.01969  -0.00655
           Y           -0.01978   0.99970  -0.01444
           Z            0.00626   0.01457   0.99987
 This molecule is an asymmetric top.
 Rotational symmetry number  1.
 Warning -- assumption of classical behavior for rotation
           may cause significant error
 Rotational temperatures (Kelvin)      0.04404     0.02163     0.01611
 Rotational constants (GHZ):           0.91755     0.45065     0.33572
 Zero-point vibrational energy     540548.4 (Joules/Mol)
                                  129.19416 (Kcal/Mol)
 Warning -- explicit consideration of  22 degrees of freedom as
           vibrations may cause significant error
 Vibrational temperatures:     56.49    88.73   103.35   153.49   191.24
          (Kelvin)            217.43   250.80   286.77   346.21   358.81
                              415.21   458.89   514.11   554.84   578.40
                              620.54   671.50   713.23   714.08   752.95
                              816.46   864.74   943.21   980.58   993.13
                             1033.74  1079.58  1129.50  1150.76  1187.35
                             1243.42  1329.11  1361.60  1395.10  1413.94
                             1423.44  1454.11  1487.17  1537.53  1552.65
                             1579.51  1591.04  1691.49  1701.34  1760.27
                             1825.90  1853.39  1929.40  1972.76  1985.02
                             2022.23  2033.71  2038.83  2074.11  2118.68
                             2124.13  2142.95  2153.63  2162.69  2186.42
                             2262.15  2360.52  2580.83  2722.63  4315.71
                             4344.48  4353.47  4375.21  4412.54  4433.50
                             4472.27  4483.25  4499.91  4504.61  4533.35

 Zero-point correction=                           0.205884 (Hartree/Particle)
 Thermal correction to Energy=                    0.220126
 Thermal correction to Enthalpy=                  0.221070
 Thermal correction to Gibbs Free Energy=         0.164551
 Sum of electronic and zero-point Energies=           -706.789645
 Sum of electronic and thermal Energies=              -706.775403
 Sum of electronic and thermal Enthalpies=            -706.774459
 Sum of electronic and thermal Free Energies=         -706.830978

                     E (Thermal)             CV                S
                      KCal/Mol        Cal/Mol-Kelvin    Cal/Mol-Kelvin
 Total                  138.131             54.273            118.955
 Electronic               0.000              0.000              0.000
 Translational            0.889              2.981             41.973
 Rotational               0.889              2.981             32.115
 Vibrational            136.354             48.311             44.866
 Vibration     1          0.594              1.981              5.296
 Vibration     2          0.597              1.973              4.403
 Vibration     3          0.598              1.967              4.103
 Vibration     4          0.606              1.944              3.328
 Vibration     5          0.613              1.920              2.903
 Vibration     6          0.619              1.901              2.658
 Vibration     7          0.627              1.874              2.388
 Vibration     8          0.637              1.841              2.139
 Vibration     9          0.658              1.778              1.798
 Vibration    10          0.662              1.764              1.735
 Vibration    11          0.685              1.695              1.482
 Vibration    12          0.705              1.637              1.316
 Vibration    13          0.732              1.560              1.134
 Vibration    14          0.754              1.501              1.017
 Vibration    15          0.768              1.466              0.955
 Vibration    16          0.792              1.402              0.854
 Vibration    17          0.824              1.324              0.747
 Vibration    18          0.851              1.260              0.669
 Vibration    19          0.852              1.258              0.667
 Vibration    20          0.878              1.198              0.602
 Vibration    21          0.923              1.102              0.509
 Vibration    22          0.959              1.030              0.448

                           ! Non-Optimized Parameters !
 Normal termination of Gaussian 16 at Fri May 19 06:36:59 2023.
