 Gaussian 16, Revision A.03,
 Gaussian 16:  ES64L-G16RevA.03 25-Dec-2016

 -----------------------------
 # opt freq b3lyp/6-31g(2df,p)
 -----------------------------

 -------------------
 Title Card Required
 -------------------
 Symbolic Z-matrix:
 Charge =  0 Multiplicity = 1

 SCF Done:  E(RB3LYP) =  -1316.44814378     A.U. after   15 cycles
 SCF Done:  E(RB3LYP) =  -1316.45557437     A.U. after   12 cycles
 SCF Done:  E(RB3LYP) =  -1316.45597650     A.U. after   11 cycles
 SCF Done:  E(RB3LYP) =  -1316.45602306     A.U. after   10 cycles
 SCF Done:  E(RB3LYP) =  -1316.45602366     A.U. after   10 cycles
 SCF Done:  E(RB3LYP) =  -1316.45602946     A.U. after    9 cycles
 SCF Done:  E(RB3LYP) =  -1316.45602953     A.U. after    8 cycles
 SCF Done:  E(RB3LYP) =  -1316.45602909     A.U. after    9 cycles
 SCF Done:  E(RB3LYP) =  -1316.45603023     A.U. after    8 cycles
 Optimization completed.
    -- Stationary point found.
 Normal termination of Gaussian 16 at Thu May 18 11:27:25 2023.

 ----------------------------------------------------------------------
 #N Geom=AllCheck Guess=TCheck SCRF=Check GenChk RB3LYP/6-31G(2df,p) Fr
 eq
 ----------------------------------------------------------------------

 Structure from the checkpoint file:  "CCCCCSCqdSrCdCNdCCdO.chk"
 -------------------
 Title Card Required
 -------------------
 Charge =  0 Multiplicity = 1

                         Standard orientation:
 ---------------------------------------------------------------------
 Center     Atomic      Atomic             Coordinates (Angstroms)
 Number     Number       Type             X           Y           Z
 ---------------------------------------------------------------------
      1          6           0        7.395310    0.076088   -0.000128
      2          6           0        6.105764   -0.748964    0.000015
      3          6           0        4.840845    0.116646   -0.000092
      4          6           0        3.547809   -0.709372    0.000051
      5          6           0        2.305910    0.185919   -0.000061
      6         16           0        0.800165   -0.838147    0.000121
      7          6           0       -0.512437    0.325171    0.000030
      8         16           0       -0.330427    1.966170    0.000065
      9          6           0       -1.793894   -0.378243    0.000024
     10          6           0       -3.001752    0.221574    0.000007
     11          7           0       -4.149255   -0.550006    0.000005
     12          6           0       -5.282765    0.051383   -0.000010
     13          6           0       -6.523582   -0.759309   -0.000004
     14          8           0       -7.628386   -0.270038   -0.000153
     15          1           0        8.280024   -0.567861   -0.000048
     16          1           0        7.452893    0.721341    0.883435
     17          1           0        7.452863    0.721080   -0.883883
     18          1           0        6.091711   -1.409225    0.877111
     19          1           0        6.091682   -1.409483   -0.876886
     20          1           0        4.850782    0.777101   -0.877774
     21          1           0        4.850811    0.777361    0.877394
     22          1           0        3.531634   -1.365433    0.879157
     23          1           0        3.531604   -1.365693   -0.878859
     24          1           0        2.268192    0.831728   -0.881516
     25          1           0        2.268223    0.831992    0.881202
     26          1           0       -1.775158   -1.465265    0.000037
     27          1           0       -3.079026    1.310184   -0.000004
     28          1           0       -5.403264    1.142299   -0.000024
     29          1           0       -6.344155   -1.853510   -0.000134
 ---------------------------------------------------------------------

 SCF Done:  E(RB3LYP) =  -1316.45603023     A.U. after    1 cycles

 The electronic state is 1-A.
 Alpha  occ. eigenvalues --  -88.91043 -88.85345 -19.15466 -14.36881 -10.28378
 Alpha  occ. eigenvalues --  -10.28104 -10.25334 -10.24458 -10.22730 -10.22409
 Alpha  occ. eigenvalues --  -10.20208 -10.19194 -10.18854 -10.17919  -7.97348
 Alpha  occ. eigenvalues --   -7.91892  -5.93744  -5.93381  -5.93070  -5.88248
 Alpha  occ. eigenvalues --   -5.88066  -5.87457  -1.05887  -0.96507  -0.86502
 Alpha  occ. eigenvalues --   -0.82370  -0.79344  -0.76558  -0.72522  -0.70100
 Alpha  occ. eigenvalues --   -0.67372  -0.62484  -0.59505  -0.58922  -0.58445
 Alpha  occ. eigenvalues --   -0.54032  -0.52042  -0.49437  -0.47672  -0.45557
 Alpha  occ. eigenvalues --   -0.45432  -0.44273  -0.43784  -0.43026  -0.42831
 Alpha  occ. eigenvalues --   -0.40760  -0.40378  -0.39104  -0.38932  -0.37669
 Alpha  occ. eigenvalues --   -0.36104  -0.34892  -0.34476  -0.33806  -0.33386
 Alpha  occ. eigenvalues --   -0.32711  -0.29984  -0.26737  -0.26550  -0.24806
 Alpha  occ. eigenvalues --   -0.22779
 Alpha virt. eigenvalues --   -0.12317  -0.05942   0.01325   0.02755   0.05696
 Alpha virt. eigenvalues --    0.06390   0.08332   0.09116   0.10177   0.10821
 Alpha virt. eigenvalues --    0.10995   0.11819   0.13126   0.14677   0.15066

 Mulliken charges:
               1
     1  C   -0.380826
     2  C   -0.166274
     3  C   -0.171554
     4  C   -0.207011
     5  C   -0.207240
     6  S   -0.039057
     7  C    0.201576
     8  S   -0.356183
     9  C   -0.160752
    10  C    0.042821
    11  N   -0.166845
    12  C   -0.052255
    13  C    0.123885
    14  O   -0.240030
    15  H    0.114885
    16  H    0.116234
    17  H    0.116234
    18  H    0.098107
    19  H    0.098107
    20  H    0.100848
    21  H    0.100850
    22  H    0.116091
    23  H    0.116090
    24  H    0.155000
    25  H    0.155009
    26  H    0.133129
    27  H    0.139428
    28  H    0.121091
    29  H    0.098639
 Sum of Mulliken charges =  -0.00000

 Dipole moment (field-independent basis, Debye):
    X=              3.9852    Y=             -1.1020    Z=              0.0000  Tot=              4.1348
 Quadrupole moment (field-independent basis, Debye-Ang):
   XX=           -114.2291   YY=           -101.4681   ZZ=            -98.1648
   XY=             -0.9906   XZ=             -0.0016   YZ=              0.0000

  Exact polarizability: 347.153   0.073 153.602   0.003  -0.000  93.583
 Approx polarizability: 465.240 -17.559 295.434   0.007  -0.002 157.879

                      1                      2                      3
                      A                      A                      A
 Frequencies --     15.7183                33.6723                43.8736
 Red. masses --      6.1916                 6.1796                 2.3050
 Frc consts  --      0.0009                 0.0041                 0.0026
 IR Inten    --      0.0550                 0.1093                 0.0205

                      4                      5                      6
                      A                      A                      A
 Frequencies --     49.2900                77.9336                83.4797
 Red. masses --      2.8096                 6.3547                 3.6519
 Frc consts  --      0.0040                 0.0227                 0.0150
 IR Inten    --      0.1367                 0.6362                 4.2593

                      7                      8                      9
                      A                      A                      A
 Frequencies --     92.8225               125.4221               144.8298
 Red. masses --      2.5750                 1.7065                 2.5152
 Frc consts  --      0.0131                 0.0158                 0.0311
 IR Inten    --      0.0428                 0.5494                 1.4387

                     10                     11                     12
                      A                      A                      A
 Frequencies --    154.6601               173.9564               175.9598
 Red. masses --      4.7631                 4.2624                 5.8065
 Frc consts  --      0.0671                 0.0760                 0.1059
 IR Inten    --      2.2675                 2.6308                 3.4046

                     13                     14                     15
                      A                      A                      A
 Frequencies --    200.2831               204.1189               246.7314
 Red. masses --      2.4810                 7.2875                 1.1156
 Frc consts  --      0.0586                 0.1789                 0.0400
 IR Inten    --      2.8328                 7.6253                 0.0023

                     16                     17                     18
                      A                      A                      A
 Frequencies --    257.2533               348.3231               356.9435
 Red. masses --      5.8894                 3.6519                 4.4448
 Frc consts  --      0.2296                 0.2611                 0.3337
 IR Inten    --      0.5539                11.3624                 6.1134

                     19                     20                     21
                      A                      A                      A
 Frequencies --    371.8488               414.3478               468.8341
 Red. masses --      5.7666                 4.2319                 4.5797
 Frc consts  --      0.4698                 0.4281                 0.5931
 IR Inten    --      0.4573                 1.4120                 1.0987

                     22                     23                     24
                      A                      A                      A
 Frequencies --    529.8246               572.3000               583.6965
 Red. masses --      4.8215                 6.7725                 6.6128
 Frc consts  --      0.7974                 1.3069                 1.3274
 IR Inten    --     19.7779                 3.6911                22.4902

                     25                     26                     27
                      A                      A                      A
 Frequencies --    733.7383               739.4730               753.4839
 Red. masses --      1.0641                 6.2059                 1.1176
 Frc consts  --      0.3375                 1.9994                 0.3738
 IR Inten    --      4.6549                 8.9514                 0.0082

                     28                     29                     30
                      A                      A                      A
 Frequencies --    763.6754               835.4017               890.8378
 Red. masses --      6.2097                 1.2036                 1.4113
 Frc consts  --      2.1337                 0.4949                 0.6599
 IR Inten    --     10.1601                 0.9507                 5.0397

                     31                     32                     33
                      A                      A                      A
 Frequencies --    905.8977               942.9496               947.5991
 Red. masses --      1.8726                 5.5231                 1.3989
 Frc consts  --      0.9054                 2.8934                 0.7401
 IR Inten    --      0.5103               219.3940                 4.1842

                     34                     35                     36
                      A                      A                      A
 Frequencies --    961.2369              1008.7492              1011.4102
 Red. masses --      1.2197                 3.9468                 1.3105
 Frc consts  --      0.6640                 2.3662                 0.7898
 IR Inten    --      0.0076                 0.4392                14.3146

                     37                     38                     39
                      A                      A                      A
 Frequencies --   1041.6597              1049.0518              1065.8262
 Red. masses --      2.8923                 1.8101                 2.4150
 Frc consts  --      1.8490                 1.1737                 1.6164
 IR Inten    --      0.4891                 4.1748                 0.1470

                     40                     41                     42
                      A                      A                      A
 Frequencies --   1079.8931              1121.8686              1125.4624
 Red. masses --      1.1165                 3.1746                 2.3825
 Frc consts  --      0.7671                 2.3541                 1.7780
 IR Inten    --      0.6417               136.1850                45.6944

                     43                     44                     45
                      A                      A                      A
 Frequencies --   1186.6130              1220.6090              1230.0989
 Red. masses --      4.3788                 1.6306                 4.4937
 Frc consts  --      3.6326                 1.4314                 4.0062
 IR Inten    --     62.3039                 0.0091                66.3360

                     46                     47                     48
                      A                      A                      A
 Frequencies --   1235.0085              1278.8010              1287.5920
 Red. masses --      1.4215                 1.2613                 1.2508
 Frc consts  --      1.2774                 1.2153                 1.2218
 IR Inten    --     15.8892                 0.0161                32.5847

                     49                     50                     51
                      A                      A                      A
 Frequencies --   1307.1484              1327.2521              1327.2980
 Red. masses --      1.3207                 1.1288                 1.3787
 Frc consts  --      1.3295                 1.1716                 1.4310
 IR Inten    --      0.6732                 0.0358                 8.1572

                     52                     53                     54
                      A                      A                      A
 Frequencies --   1333.4610              1341.6987              1373.1876
 Red. masses --      1.0580                 1.4126                 1.4130
 Frc consts  --      1.1084                 1.4982                 1.5699
 IR Inten    --      0.4927                 6.4034                 5.5655

                     55                     56                     57
                      A                      A                      A
 Frequencies --   1394.3770              1399.6035              1414.6902
 Red. masses --      1.3277                 1.5770                 1.2396
 Frc consts  --      1.5210                 1.8201                 1.4617
 IR Inten    --      0.4073                 1.0161                 0.6317

                     58                     59                     60
                      A                      A                      A
 Frequencies --   1459.0983              1484.5636              1489.2607
 Red. masses --      1.0844                 1.0677                 1.0693
 Frc consts  --      1.3602                 1.3864                 1.3974
 IR Inten    --      7.9874                 2.6215                 0.2610

                     61                     62                     63
                      A                      A                      A
 Frequencies --   1500.0028              1502.3749              1513.5979
 Red. masses --      1.0399                 1.0752                 1.0918
 Frc consts  --      1.3786                 1.4298                 1.4737
 IR Inten    --      5.3873                 0.4659                 3.5283

                     64                     65                     66
                      A                      A                      A
 Frequencies --   1616.9425              1677.3806              1795.2238
 Red. masses --      6.2899                 6.2188                 9.9481
 Frc consts  --      9.6891                10.3091                18.8898
 IR Inten    --      5.9898                47.9598               321.3512

                     67                     68                     69
                      A                      A                      A
 Frequencies --   2937.7867              3008.0092              3016.3084
 Red. masses --      1.0861                 1.0577                 1.0590
 Frc consts  --      5.5226                 5.6384                 5.6768
 IR Inten    --     90.2030                 1.3394                17.6500

                     70                     71                     72
                      A                      A                      A
 Frequencies --   3027.3341              3030.8262              3032.5944
 Red. masses --      1.0578                 1.0369                 1.0997
 Frc consts  --      5.7119                 5.6118                 5.9586
 IR Inten    --     32.0596                44.1453                 0.0026

                     73                     74                     75
                      A                      A                      A
 Frequencies --   3050.7585              3050.9519              3060.7225
 Red. masses --      1.0886                 1.1032                 1.0566
 Frc consts  --      5.9693                 6.0502                 5.8320
 IR Inten    --     22.4243                 5.5292                 7.4399

                     76                     77                     78
                      A                      A                      A
 Frequencies --   3070.4650              3097.3651              3103.9254
 Red. masses --      1.1052                 1.1022                 1.1010
 Frc consts  --      6.1389                 6.2301                 6.2496
 IR Inten    --     37.2193                52.6853                37.0528

                     79                     80                     81
                      A                      A                      A
 Frequencies --   3114.6865              3117.4925              3167.6015
 Red. masses --      1.1074                 1.0893                 1.0887
 Frc consts  --      6.3299                 6.2377                 6.4360
 IR Inten    --      9.5498                 5.6612                 1.0761

 - Thermochemistry -
 -------------------
 Temperature   298.150 Kelvin.  Pressure   1.00000 Atm.
 Atom     1 has atomic number  6 and mass  12.00000

 Molecular mass:   229.05951 amu.
 Principal axes and moments of inertia in atomic units:
                           1         2         3
     Eigenvalues --   727.03992********************
           X            1.00000  -0.00142  -0.00000
           Y            0.00142   1.00000  -0.00000
           Z            0.00000   0.00000   1.00000
 This molecule is an asymmetric top.
 Rotational symmetry number  1.
 Warning -- assumption of classical behavior for rotation
           may cause significant error
 Rotational temperatures (Kelvin)      0.11913     0.00576     0.00551
 Rotational constants (GHZ):           2.48231     0.11995     0.11482
 Zero-point vibrational energy     611812.4 (Joules/Mol)
                                  146.22668 (Kcal/Mol)
 Warning -- explicit consideration of  24 degrees of freedom as
           vibrations may cause significant error
 Vibrational temperatures:     22.62    48.45    63.12    70.92   112.13
          (Kelvin)            120.11   133.55   180.45   208.38   222.52
                              250.28   253.17   288.16   293.68   354.99
                              370.13   501.16   513.56   535.01   596.15
                              674.55   762.30   823.41   839.81  1055.69
                             1063.94  1084.10  1098.76  1201.96  1281.72
                             1303.38  1356.69  1363.38  1383.01  1451.37
                             1455.19  1498.72  1509.35  1533.49  1553.73
                             1614.12  1619.29  1707.27  1756.18  1769.84
                             1776.90  1839.91  1852.56  1880.70  1909.62
                             1909.69  1918.55  1930.41  1975.71  2006.20
                             2013.72  2035.42  2099.32  2135.96  2142.71
                             2158.17  2161.58  2177.73  2326.42  2413.38
                             2582.93  4226.82  4327.85  4339.80  4355.66
                             4360.68  4363.23  4389.36  4389.64  4403.70
                             4417.71  4456.42  4465.86  4481.34  4485.38
                             4557.47

 Zero-point correction=                           0.233027 (Hartree/Particle)
 Thermal correction to Energy=                    0.250150
 Thermal correction to Enthalpy=                  0.251094
 Thermal correction to Gibbs Free Energy=         0.184585
 Sum of electronic and zero-point Energies=          -1316.223003
 Sum of electronic and thermal Energies=             -1316.205881
 Sum of electronic and thermal Enthalpies=           -1316.204937
 Sum of electronic and thermal Free Energies=        -1316.271445

                     E (Thermal)             CV                S
                      KCal/Mol        Cal/Mol-Kelvin    Cal/Mol-Kelvin
 Total                  156.971             58.374            139.980
 Electronic               0.000              0.000              0.000
 Translational            0.889              2.981             42.189
 Rotational               0.889              2.981             33.508
 Vibrational            155.194             52.412             64.283
 Vibration     1          0.593              1.986              7.113
 Vibration     2          0.594              1.983              5.600
 Vibration     3          0.595              1.980              5.076
 Vibration     4          0.595              1.978              4.846
 Vibration     5          0.599              1.964              3.942
 Vibration     6          0.600              1.961              3.807
 Vibration     7          0.602              1.954              3.600
 Vibration     8          0.610              1.928              3.015
 Vibration     9          0.616              1.908              2.739
 Vibration    10          0.620              1.897              2.614
 Vibration    11          0.627              1.875              2.392
 Vibration    12          0.628              1.872              2.371
 Vibration    13          0.638              1.839              2.130
 Vibration    14          0.640              1.834              2.096
 Vibration    15          0.661              1.768              1.754
 Vibration    16          0.667              1.751              1.680
 Vibration    17          0.726              1.579              1.174
 Vibration    18          0.732              1.561              1.135
 Vibration    19          0.744              1.530              1.072
 Vibration    20          0.778              1.439              0.911
 Vibration    21          0.826              1.319              0.741
 Vibration    22          0.885              1.184              0.588
 Vibration    23          0.929              1.091              0.500
 Vibration    24          0.941              1.067              0.479

 Optimization completed.
    -- Stationary point found.
 Normal termination of Gaussian 16 at Thu May 18 12:38:48 2023.
