 Gaussian 16, Revision A.03,
 Gaussian 16:  ES64L-G16RevA.03 25-Dec-2016

 -----------------------------
 # opt freq b3lyp/6-31g(2df,p)
 -----------------------------

 -------------------
 Title Card Required
 -------------------
 Symbolic Z-matrix:
 Charge =  0 Multiplicity = 1

 SCF Done:  E(RB3LYP) =  -1018.69078236     A.U. after   29 cycles
 SCF Done:  E(RB3LYP) =  -1018.80091139     A.U. after   19 cycles
 SCF Done:  E(RB3LYP) =  -1018.98532722     A.U. after   18 cycles
 SCF Done:  E(RB3LYP) =  -1019.17830740     A.U. after   18 cycles
 SCF Done:  E(RB3LYP) =  -1019.21427128     A.U. after   17 cycles
 SCF Done:  E(RB3LYP) =  -1019.33943911     A.U. after   16 cycles
 SCF Done:  E(RB3LYP) =  -1019.46952713     A.U. after   16 cycles
 SCF Done:  E(RB3LYP) =  -1019.53611029     A.U. after   16 cycles
 SCF Done:  E(RB3LYP) =  -1019.59061174     A.U. after   16 cycles
 SCF Done:  E(RB3LYP) =  -1019.64354205     A.U. after   15 cycles
 SCF Done:  E(RB3LYP) =  -1019.82818545     A.U. after    6 cycles
 SCF Done:  E(RB3LYP) =  -1019.82818558     A.U. after    7 cycles
 SCF Done:  E(RB3LYP) =  -1019.82818571     A.U. after    7 cycles
 SCF Done:  E(RB3LYP) =  -1019.82818582     A.U. after    6 cycles
 SCF Done:  E(RB3LYP) =  -1019.82818597     A.U. after    7 cycles
 SCF Done:  E(RB3LYP) =  -1019.82818605     A.U. after    6 cycles
 SCF Done:  E(RB3LYP) =  -1019.82818614     A.U. after    6 cycles
 SCF Done:  E(RB3LYP) =  -1019.82818618     A.U. after    6 cycles
 SCF Done:  E(RB3LYP) =  -1019.82818620     A.U. after    6 cycles
 Optimization completed.
    -- Stationary point found.
 Normal termination of Gaussian 16 at Sat May 20 05:11:05 2023.

 ----------------------------------------------------------------------
 #N Geom=AllCheck Guess=TCheck SCRF=Check GenChk RB3LYP/6-31G(2df,p) Fr
 eq
 ----------------------------------------------------------------------

 Structure from the checkpoint file:  "CCCC1CdCCdCCdCCdS2CdCC2dCC1.chk"
 -------------------
 Title Card Required
 -------------------
 Charge =  0 Multiplicity = 1

                         Standard orientation:
 ---------------------------------------------------------------------
 Center     Atomic      Atomic             Coordinates (Angstroms)
 Number     Number       Type             X           Y           Z
 ---------------------------------------------------------------------
      1          6           0        8.234294   -0.950222    0.357757
      2          6           0        7.031359   -0.069045    0.704098
      3          6           0        5.738083   -0.519152    0.010358
      4          6           0        4.545444    0.349287    0.350554
      5          6           0        3.344268    0.406324   -0.584035
      6          6           0        1.979717    0.431516   -0.043333
      7          6           0        0.910109   -0.166161   -0.599539
      8          6           0       -0.421333   -0.134441   -0.050215
      9          6           0       -1.499943   -0.732517   -0.604361
     10          6           0       -2.824950   -0.704457   -0.040955
     11          6           0       -3.881924   -1.311815   -0.608436
     12         16           0       -5.537717   -1.442150   -0.028167
     13          6           0       -5.857817   -0.123530    1.086677
     14          6           0       -5.514359    1.178812    1.040525
     15          6           0       -4.775169    1.845586    0.042166
     16          6           0       -4.165027    2.474060   -0.786561
     17          6           0        4.264615    1.609460   -0.412449
     18          1           0        9.140221   -0.608703    0.868119
     19          1           0        8.435577   -0.940382   -0.719411
     20          1           0        8.060099   -1.991810    0.650162
     21          1           0        7.242127    0.972318    0.429868
     22          1           0        6.875736   -0.070616    1.790978
     23          1           0        5.523402   -1.561539    0.283451
     24          1           0        5.889532   -0.514669   -1.077809
     25          1           0        4.298567    0.377638    1.409927
     26          1           0        3.456571   -0.138923   -1.517613
     27          1           0        1.843932    0.982429    0.888129
     28          1           0        1.041005   -0.716816   -1.530952
     29          1           0       -0.552766    0.416855    0.880680
     30          1           0       -1.373109   -1.280981   -1.537295
     31          1           0       -2.954420   -0.158523    0.889084
     32          1           0       -3.770855   -1.867545   -1.535797
     33          1           0       -6.491132   -0.455688    1.903659
     34          1           0       -5.864862    1.800306    1.862647
     35          1           0       -3.623701    3.000799   -1.532839
     36          1           0        3.872279    2.469133    0.120263
     37          1           0        4.911063    1.858877   -1.248094
 ---------------------------------------------------------------------

 SCF Done:  E(RB3LYP) =  -1019.82818620     A.U. after    1 cycles

 The electronic state is 1-A.
 Alpha  occ. eigenvalues --  -88.89397 -10.22562 -10.21275 -10.20896 -10.19378
 Alpha  occ. eigenvalues --  -10.19245 -10.18706 -10.18665 -10.18625 -10.18531
 Alpha  occ. eigenvalues --  -10.18252 -10.18234 -10.18156 -10.18107 -10.17977
 Alpha  occ. eigenvalues --  -10.17797 -10.17318  -7.95538  -5.92019  -5.91593
 Alpha  occ. eigenvalues --   -5.91200  -0.86772  -0.83662  -0.81102  -0.78870
 Alpha  occ. eigenvalues --   -0.77913  -0.75749  -0.72921  -0.69939  -0.68703
 Alpha  occ. eigenvalues --   -0.63483  -0.60593  -0.59854  -0.56897  -0.56652
 Alpha  occ. eigenvalues --   -0.55251  -0.54996  -0.51717  -0.48875  -0.48502
 Alpha  occ. eigenvalues --   -0.47621  -0.46770  -0.45348  -0.44987  -0.42558
 Alpha  occ. eigenvalues --   -0.41382  -0.40190  -0.39672  -0.38521  -0.37615
 Alpha  occ. eigenvalues --   -0.36726  -0.35598  -0.35127  -0.34726  -0.34374
 Alpha  occ. eigenvalues --   -0.33824  -0.33485  -0.32900  -0.32835  -0.31994
 Alpha  occ. eigenvalues --   -0.29154  -0.28380  -0.27382  -0.25371  -0.22735
 Alpha  occ. eigenvalues --   -0.18071
 Alpha virt. eigenvalues --   -0.04846  -0.02916   0.03914   0.04509   0.06968
 Alpha virt. eigenvalues --    0.08250   0.08751   0.09248   0.10534   0.10653
 Alpha virt. eigenvalues --    0.11329   0.12141   0.12660   0.13136   0.13362

 Mulliken charges:
               1
     1  C   -0.380531
     2  C   -0.155665
     3  C   -0.198141
     4  C    0.001174
     5  C   -0.068853
     6  C   -0.045142
     7  C   -0.096577
     8  C   -0.077252
     9  C   -0.090275
    10  C   -0.033539
    11  C   -0.146676
    12  S   -0.081189
    13  C   -0.092352
    14  C   -0.213210
    15  C    0.311757
    16  C   -0.438825
    17  C   -0.293768
    18  H    0.111818
    19  H    0.113119
    20  H    0.114218
    21  H    0.098759
    22  H    0.094782
    23  H    0.097709
    24  H    0.090290
    25  H    0.083059
    26  H    0.080361
    27  H    0.078668
    28  H    0.074660
    29  H    0.079446
    30  H    0.077968
    31  H    0.099577
    32  H    0.117233
    33  H    0.131294
    34  H    0.126231
    35  H    0.206190
    36  H    0.111821
    37  H    0.111860
 Sum of Mulliken charges =  -0.00000

 Dipole moment (field-independent basis, Debye):
    X=              1.8753    Y=              0.7916    Z=              0.4144  Tot=              2.0773
 Quadrupole moment (field-independent basis, Debye-Ang):
   XX=           -108.2782   YY=           -110.2592   ZZ=           -103.4870
   XY=             -1.6052   XZ=             -6.5324   YZ=              2.1813

  Exact polarizability: 411.947  38.701 177.984  -7.210   6.967 147.795
 Approx polarizability: 541.346 109.859 306.444  -5.463  11.841 253.623

                      1                      2                      3
                      A                      A                      A
 Frequencies --     18.4812                20.5277                31.8222
 Red. masses --      4.8202                 3.9661                 4.7256
 Frc consts  --      0.0010                 0.0010                 0.0028
 IR Inten    --      0.0025                 0.3815                 1.4047

                      4                      5                      6
                      A                      A                      A
 Frequencies --     37.2296                58.3220                72.3422
 Red. masses --      3.2739                 4.5653                 2.5141
 Frc consts  --      0.0027                 0.0091                 0.0078
 IR Inten    --      0.3721                 1.9563                 0.0762

                      7                      8                      9
                      A                      A                      A
 Frequencies --     89.5417               102.1507               115.3426
 Red. masses --      2.0544                 3.9052                 2.9223
 Frc consts  --      0.0097                 0.0240                 0.0229
 IR Inten    --      2.0586                 0.2071                 1.7805

                     10                     11                     12
                      A                      A                      A
 Frequencies --    127.2461               143.8717               182.5457
 Red. masses --      4.4780                 2.4542                 4.2383
 Frc consts  --      0.0427                 0.0299                 0.0832
 IR Inten    --      0.0549                 4.0454                 0.6996

                     13                     14                     15
                      A                      A                      A
 Frequencies --    189.0178               226.4954               243.8504
 Red. masses --      4.2194                 4.0498                 1.2209
 Frc consts  --      0.0888                 0.1224                 0.0428
 IR Inten    --      0.8507                 0.5669                 0.8999

                     16                     17                     18
                      A                      A                      A
 Frequencies --    252.5663               279.5137               292.8169
 Red. masses --      2.0062                 3.6385                 3.6205
 Frc consts  --      0.0754                 0.1675                 0.1829
 IR Inten    --      4.5839                 4.1332                 2.7145

                     19                     20                     21
                      A                      A                      A
 Frequencies --    317.4370               329.5620               368.6834
 Red. masses --      3.0581                 2.6517                 4.3742
 Frc consts  --      0.1816                 0.1697                 0.3503
 IR Inten    --      1.3528                 0.8404                 2.9826

                     22                     23                     24
                      A                      A                      A
 Frequencies --    376.5790               398.8997               442.9185
 Red. masses --      3.5256                 2.8551                 4.4433
 Frc consts  --      0.2946                 0.2677                 0.5136
 IR Inten    --      5.2582                 0.6411                 5.7490

                     25                     26                     27
                      A                      A                      A
 Frequencies --    498.4876               517.9926               527.4478
 Red. masses --      2.4494                 3.5913                 3.3997
 Frc consts  --      0.3586                 0.5677                 0.5572
 IR Inten    --      1.6625                16.8854                 1.4260

                     28                     29                     30
                      A                      A                      A
 Frequencies --    571.4414               601.3592               640.1903
 Red. masses --      3.6927                 1.2169                 1.4489
 Frc consts  --      0.7105                 0.2593                 0.3499
 IR Inten    --      0.7690                51.4018                23.9761

                     31                     32                     33
                      A                      A                      A
 Frequencies --    665.5337               730.3762               744.3915
 Red. masses --      3.5978                 4.1227                 1.1195
 Frc consts  --      0.9389                 1.2957                 0.3655
 IR Inten    --     24.8812                 7.6202                 3.4055

                     34                     35                     36
                      A                      A                      A
 Frequencies --    753.4629               792.6972               807.3766
 Red. masses --      1.7324                 1.7543                 3.3238
 Frc consts  --      0.5795                 0.6495                 1.2765
 IR Inten    --     24.3806                21.0986                22.6896

                     37                     38                     39
                      A                      A                      A
 Frequencies --    822.1422               847.5049               860.4026
 Red. masses --      2.8058                 1.6487                 1.2650
 Frc consts  --      1.1174                 0.6977                 0.5517
 IR Inten    --      2.7955                 2.9795                 2.3890

                     40                     41                     42
                      A                      A                      A
 Frequencies --    871.5461               894.1092               909.6050
 Red. masses --      2.0358                 1.9930                 1.7754
 Frc consts  --      0.9111                 0.9387                 0.8655
 IR Inten    --     33.4701                 3.3756                 9.8586

                     43                     44                     45
                      A                      A                      A
 Frequencies --    917.2212               941.2213               948.5861
 Red. masses --      2.3498                 1.6534                 1.2867
 Frc consts  --      1.1647                 0.8630                 0.6821
 IR Inten    --      8.4478                24.8742                 6.1579

                     46                     47                     48
                      A                      A                      A
 Frequencies --    953.8686               985.0867               994.1262
 Red. masses --      1.1644                 2.9078                 1.1222
 Frc consts  --      0.6242                 1.6625                 0.6534
 IR Inten    --      3.2973                 6.1443                 1.8545

                     49                     50                     51
                      A                      A                      A
 Frequencies --   1033.8868              1040.7776              1056.6865
 Red. masses --      2.5908                 1.1036                 1.2836
 Frc consts  --      1.6317                 0.7043                 0.8444
 IR Inten    --     23.0105                39.4562                13.8505

                     52                     53                     54
                      A                      A                      A
 Frequencies --   1061.0135              1069.3468              1117.1376
 Red. masses --      1.9946                 1.6512                 1.1432
 Frc consts  --      1.3229                 1.1125                 0.8406
 IR Inten    --      3.1646                54.8527                 2.1991

                     55                     56                     57
                      A                      A                      A
 Frequencies --   1129.4727              1155.6012              1171.8910
 Red. masses --      1.8981                 2.2233                 2.6941
 Frc consts  --      1.4267                 1.7493                 2.1799
 IR Inten    --     12.7753                10.6632                 6.0325

                     58                     59                     60
                      A                      A                      A
 Frequencies --   1192.7661              1199.3775              1220.3711
 Red. masses --      1.7152                 1.8486                 1.5154
 Frc consts  --      1.4378                 1.5667                 1.3297
 IR Inten    --      8.7882                 0.5751                 5.5071

                     61                     62                     63
                      A                      A                      A
 Frequencies --   1231.3021              1248.5767              1259.4229
 Red. masses --      1.5535                 1.1340                 1.2805
 Frc consts  --      1.3876                 1.0416                 1.1967
 IR Inten    --      0.9731                 0.7926                 3.3154

                     64                     65                     66
                      A                      A                      A
 Frequencies --   1276.1459              1299.1363              1312.1591
 Red. masses --      1.3263                 1.2807                 1.4540
 Frc consts  --      1.2726                 1.2735                 1.4750
 IR Inten    --      1.5320                12.2226                 8.1413

                     67                     68                     69
                      A                      A                      A
 Frequencies --   1322.4021              1327.4951              1330.4984
 Red. masses --      1.3668                 1.3095                 1.1537
 Frc consts  --      1.4083                 1.3596                 1.2033
 IR Inten    --      0.3668                 0.7586                 3.0098

                     70                     71                     72
                      A                      A                      A
 Frequencies --   1334.7415              1372.8827              1384.5832
 Red. masses --      1.2670                 1.4014                 1.3640
 Frc consts  --      1.3299                 1.5563                 1.5406
 IR Inten    --      0.4329                 8.1115                14.4230

                     73                     74                     75
                      A                      A                      A
 Frequencies --   1397.5551              1412.5585              1435.5140
 Red. masses --      1.5550                 1.2365                 1.6087
 Frc consts  --      1.7894                 1.4537                 1.9531
 IR Inten    --      0.9724                 0.7713                 0.8754

                     76                     77                     78
                      A                      A                      A
 Frequencies --   1480.0484              1490.6205              1494.3044
 Red. masses --      1.1511                 1.2684                 1.1036
 Frc consts  --      1.4857                 1.6605                 1.4519
 IR Inten    --      1.0653                 5.7283                 0.8031

                     79                     80                     81
                      A                      A                      A
 Frequencies --   1499.8794              1510.3622              1616.3407
 Red. masses --      1.0437                 1.0829                 7.2037
 Frc consts  --      1.3834                 1.4555                11.0884
 IR Inten    --      5.4687                 3.0164                22.7061

                     82                     83                     84
                      A                      A                      A
 Frequencies --   1621.7883              1666.1162              1694.8216
 Red. masses --      5.7496                 5.0542                 5.5609
 Frc consts  --      8.9100                 8.2663                 9.4112
 IR Inten    --      0.3326                 0.8430                88.2219

                     85                     86                     87
                      A                      A                      A
 Frequencies --   2214.5937              3004.4285              3019.2276
 Red. masses --      6.1553                 1.0581                 1.0607
 Frc consts  --     17.7865                 5.6273                 5.6967
 IR Inten    --      2.4527                11.3760                32.7304

                     88                     89                     90
                      A                      A                      A
 Frequencies --   3028.3668              3032.9454              3057.0391
 Red. masses --      1.0361                 1.0987                 1.1033
 Frc consts  --      5.5984                 5.9547                 6.0751
 IR Inten    --     46.4357                 4.0762                25.5866

                     91                     92                     93
                      A                      A                      A
 Frequencies --   3094.6763              3101.0643              3117.6535
 Red. masses --      1.1022                 1.1009                 1.0871
 Frc consts  --      6.2191                 6.2376                 6.2254
 IR Inten    --     50.4615                39.2931                 1.8029

                     94                     95                     96
                      A                      A                      A
 Frequencies --   3124.2574              3124.8900              3127.7592
 Red. masses --      1.0746                 1.0717                 1.0838
 Frc consts  --      6.1800                 6.1660                 6.2472
 IR Inten    --     12.7174                 9.7148                13.9544

                     97                     98                     99
                      A                      A                      A
 Frequencies --   3128.7741              3136.0502              3136.6479
 Red. masses --      1.0877                 1.0863                 1.0833
 Frc consts  --      6.2735                 6.2943                 6.2796
 IR Inten    --      0.6875                34.4626                 3.4257

                    100                    101                    102
                      A                      A                      A
 Frequencies --   3142.6166              3162.7417              3173.9854
 Red. masses --      1.0872                 1.0899                 1.0867
 Frc consts  --      6.3262                 6.4233                 6.4501
 IR Inten    --     41.9581                 5.8222                15.1055

                    103                    104                    105
                      A                      A                      A
 Frequencies --   3177.3658              3212.0118              3504.1980
 Red. masses --      1.0911                 1.1163                 1.1572
 Frc consts  --      6.4900                 6.7853                 8.3720
 IR Inten    --      9.6334                11.1287                57.9684

 - Thermochemistry -
 -------------------
 Temperature   298.150 Kelvin.  Pressure   1.00000 Atm.
 Atom     1 has atomic number  6 and mass  12.00000

 Molecular mass:   244.12857 amu.
 Principal axes and moments of inertia in atomic units:
                           1         2         3
     Eigenvalues --  1479.97445********************
           X            0.99999  -0.00428  -0.00001
           Y            0.00428   0.99991   0.01275
           Z           -0.00005  -0.01275   0.99992
 This molecule is an asymmetric top.
 Rotational symmetry number  1.
 Warning -- assumption of classical behavior for rotation
           may cause significant error
 Rotational temperatures (Kelvin)      0.05852     0.00428     0.00412
 Rotational constants (GHZ):           1.21944     0.08917     0.08575
 Zero-point vibrational energy     812281.2 (Joules/Mol)
                                  194.13987 (Kcal/Mol)
 Warning -- explicit consideration of  29 degrees of freedom as
           vibrations may cause significant error
 Vibrational temperatures:     26.59    29.53    45.79    53.57    83.91
          (Kelvin)            104.08   128.83   146.97   165.95   183.08
                              207.00   262.64   271.95   325.88   350.85
                              363.39   402.16   421.30   456.72   474.17
                              530.45   541.81   573.93   637.26   717.21
                              745.28   758.88   822.18   865.22   921.09
                              957.55  1050.85  1071.01  1084.07  1140.51
                             1161.63  1182.88  1219.37  1237.93  1253.96
                             1286.42  1308.72  1319.68  1354.21  1364.80
                             1372.40  1417.32  1430.33  1487.53  1497.45
                             1520.34  1526.56  1538.55  1607.31  1625.06
                             1662.65  1686.09  1716.12  1725.64  1755.84
                             1771.57  1796.42  1812.03  1836.09  1869.17
                             1887.90  1902.64  1909.97  1914.29  1920.40
                             1975.27  1992.11  2010.77  2032.36  2065.38
                             2129.46  2144.67  2149.97  2157.99  2173.07
                             2325.55  2333.39  2397.17  2438.47  3186.31
                             4322.70  4344.00  4357.14  4363.73  4398.40
                             4452.55  4461.74  4485.61  4495.11  4496.02
                             4500.15  4501.61  4512.08  4512.94  4521.52
                             4550.48  4566.66  4571.52  4621.37  5041.76

 Zero-point correction=                           0.309382 (Hartree/Particle)
 Thermal correction to Energy=                    0.329258
 Thermal correction to Enthalpy=                  0.330202
 Thermal correction to Gibbs Free Energy=         0.257389
 Sum of electronic and zero-point Energies=          -1019.518805
 Sum of electronic and thermal Energies=             -1019.498929
 Sum of electronic and thermal Enthalpies=           -1019.497984
 Sum of electronic and thermal Free Energies=        -1019.570797

                     E (Thermal)             CV                S
                      KCal/Mol        Cal/Mol-Kelvin    Cal/Mol-Kelvin
 Total                  206.612             71.967            153.247
 Electronic               0.000              0.000              0.000
 Translational            0.889              2.981             42.378
 Rotational               0.889              2.981             34.799
 Vibrational            204.835             66.005             76.070
 Vibration     1          0.593              1.986              6.791
 Vibration     2          0.593              1.986              6.582
 Vibration     3          0.594              1.983              5.712
 Vibration     4          0.594              1.982              5.401
 Vibration     5          0.596              1.974              4.513
 Vibration     6          0.598              1.967              4.089
 Vibration     7          0.602              1.957              3.670
 Vibration     8          0.604              1.947              3.413
 Vibration     9          0.608              1.937              3.177
 Vibration    10          0.611              1.926              2.987
 Vibration    11          0.616              1.909              2.752
 Vibration    12          0.630              1.864              2.302
 Vibration    13          0.633              1.855              2.237
 Vibration    14          0.650              1.801              1.907
 Vibration    15          0.659              1.773              1.775
 Vibration    16          0.664              1.758              1.713
 Vibration    17          0.680              1.711              1.537
 Vibration    18          0.688              1.687              1.458
 Vibration    19          0.704              1.640              1.323
 Vibration    20          0.712              1.616              1.262
 Vibration    21          0.741              1.537              1.085
 Vibration    22          0.747              1.520              1.053
 Vibration    23          0.765              1.472              0.967
 Vibration    24          0.803              1.377              0.817
 Vibration    25          0.854              1.253              0.662
 Vibration    26          0.873              1.210              0.615
 Vibration    27          0.882              1.189              0.593
 Vibration    28          0.928              1.093              0.501
 Vibration    29          0.960              1.029              0.447

 Optimization completed.
    -- Stationary point found.
 Normal termination of Gaussian 16 at Sat May 20 07:51:22 2023.
