 Gaussian 16, Revision A.03,
 Gaussian 16:  ES64L-G16RevA.03 25-Dec-2016

 -----------------------------
 # opt freq b3lyp/6-31g(2df,p)
 -----------------------------

 -------------------
 Title Card Required
 -------------------
 Symbolic Z-matrix:
 Charge =  0 Multiplicity = 1

 SCF Done:  E(RB3LYP) =  -1053.28348111     A.U. after   19 cycles
 SCF Done:  E(RB3LYP) =  -1053.30968473     A.U. after   13 cycles
 SCF Done:  E(RB3LYP) =  -1053.31772697     A.U. after   13 cycles
 SCF Done:  E(RB3LYP) =  -1053.31909641     A.U. after   12 cycles
 SCF Done:  E(RB3LYP) =  -1053.31953634     A.U. after   12 cycles
 SCF Done:  E(RB3LYP) =  -1053.31999909     A.U. after   12 cycles
 SCF Done:  E(RB3LYP) =  -1053.32036419     A.U. after   13 cycles
 SCF Done:  E(RB3LYP) =  -1053.32011858     A.U. after   11 cycles
 SCF Done:  E(RB3LYP) =  -1053.32244199     A.U. after   12 cycles
 SCF Done:  E(RB3LYP) =  -1053.26253652     A.U. after   14 cycles
 SCF Done:  E(RB3LYP) =  -1053.32759892     A.U. after   13 cycles
 SCF Done:  E(RB3LYP) =  -1053.32800335     A.U. after   11 cycles
 SCF Done:  E(RB3LYP) =  -1053.32811560     A.U. after   11 cycles
 SCF Done:  E(RB3LYP) =  -1053.32815212     A.U. after   10 cycles
 SCF Done:  E(RB3LYP) =  -1053.32816456     A.U. after    9 cycles
 SCF Done:  E(RB3LYP) =  -1053.32817242     A.U. after    9 cycles
 SCF Done:  E(RB3LYP) =  -1053.32817591     A.U. after    9 cycles
 SCF Done:  E(RB3LYP) =  -1053.32817738     A.U. after    8 cycles
 SCF Done:  E(RB3LYP) =  -1053.32817808     A.U. after    8 cycles
 Optimization completed.
    -- Stationary point found.
 Normal termination of Gaussian 16 at Tue May 16 16:29:45 2023.

 ----------------------------------------------------------------------
 #N Geom=AllCheck Guess=TCheck SCRF=Check GenChk RB3LYP/6-31G(2df,p) Fr
 eq
 ----------------------------------------------------------------------

 Structure from the checkpoint file:  "CCCC1dCc2ccccc2OC2dC1CdCd[SH]2.chk"
 -------------------
 Title Card Required
 -------------------
 Charge =  0 Multiplicity = 1

                         Standard orientation:
 ---------------------------------------------------------------------
 Center     Atomic      Atomic             Coordinates (Angstroms)
 Number     Number       Type             X           Y           Z
 ---------------------------------------------------------------------
      1          6           0       -4.652672   -2.024737    0.539126
      2          6           0       -3.299707   -1.333466    0.723053
      3          6           0       -2.341961   -1.587022   -0.456967
      4          6           0       -0.996602   -0.916835   -0.293990
      5          6           0        0.130060   -1.655782   -0.200471
      6          6           0        1.520998   -1.208595   -0.092401
      7          6           0        2.541823   -2.016041   -0.621554
      8          6           0        3.880198   -1.650426   -0.548041
      9          6           0        4.240588   -0.457262    0.073388
     10          6           0        3.254242    0.361064    0.617951
     11          6           0        1.924014   -0.020293    0.537561
     12          8           0        0.988209    0.781581    1.200087
     13          6           0       -0.020412    1.239177    0.415357
     14          6           0       -0.956792    0.553486   -0.284634
     15          6           0       -1.889431    1.436565   -1.006005
     16          6           0       -1.783455    2.799501   -0.969781
     17         16           0       -0.203208    2.966980   -0.042258
     18          1           0       -5.313089   -1.835025    1.390693
     19          1           0       -4.535537   -3.110083    0.443531
     20          1           0       -5.161302   -1.666505   -0.362776
     21          1           0       -2.822788   -1.682999    1.646927
     22          1           0       -3.449200   -0.254165    0.842810
     23          1           0       -2.821861   -1.240340   -1.381772
     24          1           0       -2.189950   -2.665698   -0.575321
     25          1           0        0.020902   -2.734443   -0.295142
     26          1           0        2.262899   -2.948449   -1.102637
     27          1           0        4.640687   -2.298399   -0.969523
     28          1           0        5.282987   -0.167581    0.146964
     29          1           0        3.500343    1.283703    1.130609
     30          1           0       -2.716767    0.993887   -1.554434
     31          1           0       -0.657009    3.485769    1.119944
 ---------------------------------------------------------------------

 SCF Done:  E(RB3LYP) =  -1053.32817808     A.U. after    1 cycles

 The electronic state is 1-A.
 Alpha  occ. eigenvalues --  -88.95220 -19.19436 -10.26440 -10.25434 -10.20979
 Alpha  occ. eigenvalues --  -10.20852 -10.20753 -10.19997 -10.19953 -10.19806
 Alpha  occ. eigenvalues --  -10.19718 -10.19545 -10.19021 -10.18388 -10.17534
 Alpha  occ. eigenvalues --  -10.17528 -10.16391  -8.01244  -5.97569  -5.97409
 Alpha  occ. eigenvalues --   -5.96991  -1.09212  -0.87951  -0.86891  -0.82875
 Alpha  occ. eigenvalues --   -0.78434  -0.76353  -0.76032  -0.73169  -0.70359
 Alpha  occ. eigenvalues --   -0.67766  -0.64149  -0.62087  -0.59278  -0.58003
 Alpha  occ. eigenvalues --   -0.56804  -0.54103  -0.51017  -0.49400  -0.48479
 Alpha  occ. eigenvalues --   -0.46749  -0.46138  -0.45439  -0.44548  -0.43632
 Alpha  occ. eigenvalues --   -0.42543  -0.41515  -0.41369  -0.39129  -0.37819
 Alpha  occ. eigenvalues --   -0.37770  -0.37481  -0.36017  -0.34646  -0.34177
 Alpha  occ. eigenvalues --   -0.33567  -0.33161  -0.32291  -0.31286  -0.28798
 Alpha  occ. eigenvalues --   -0.25623  -0.23552  -0.21043  -0.19939
 Alpha virt. eigenvalues --   -0.06039  -0.02219  -0.00957   0.01094   0.03097
 Alpha virt. eigenvalues --    0.04388   0.06612   0.08601   0.08981   0.09829
 Alpha virt. eigenvalues --    0.10856   0.12272   0.13708   0.14326   0.15296

 Mulliken charges:
               1
     1  C   -0.380051
     2  C   -0.161699
     3  C   -0.293617
     4  C    0.175459
     5  C   -0.263674
     6  C    0.221390
     7  C   -0.189380
     8  C   -0.110448
     9  C   -0.119317
    10  C   -0.195783
    11  C    0.238543
    12  O   -0.295618
    13  C    0.075162
    14  C    0.143138
    15  C   -0.157483
    16  C   -0.309543
    17  S    0.039858
    18  H    0.115378
    19  H    0.113670
    20  H    0.117658
    21  H    0.100731
    22  H    0.115590
    23  H    0.113731
    24  H    0.099966
    25  H    0.098468
    26  H    0.100506
    27  H    0.102579
    28  H    0.107334
    29  H    0.110845
    30  H    0.092351
    31  H    0.194257
 Sum of Mulliken charges =  -0.00000

 Dipole moment (field-independent basis, Debye):
    X=              2.3861    Y=             -2.4363    Z=              1.4788  Tot=              3.7170
 Quadrupole moment (field-independent basis, Debye-Ang):
   XX=           -100.6587   YY=           -105.7516   ZZ=           -109.2188
   XY=              8.2675   XZ=             -4.1369   YZ=             11.2369

  Exact polarizability: 248.957 -12.771 197.419  10.862  15.627 110.090
 Approx polarizability: 374.357 -16.898 333.873  34.598  37.094 205.675

                      1                      2                      3
                      A                      A                      A
 Frequencies --     47.3716                56.2908                67.6983
 Red. masses --      3.7215                 5.6123                 4.7409
 Frc consts  --      0.0049                 0.0105                 0.0128
 IR Inten    --      0.3960                 0.9592                 0.1642

                      4                      5                      6
                      A                      A                      A
 Frequencies --     86.1553               100.7843               156.5562
 Red. masses --      1.6754                 4.1217                 4.4053
 Frc consts  --      0.0073                 0.0247                 0.0636
 IR Inten    --      0.0861                 0.7427                 2.9560

                      7                      8                      9
                      A                      A                      A
 Frequencies --    193.1191               227.1431               239.8101
 Red. masses --      4.6928                 4.9843                 1.2206
 Frc consts  --      0.1031                 0.1515                 0.0414
 IR Inten    --      3.0508                 1.5243                 0.0357

                     10                     11                     12
                      A                      A                      A
 Frequencies --    260.7508               285.9758               312.9488
 Red. masses --      3.9268                 2.7176                 4.6375
 Frc consts  --      0.1573                 0.1309                 0.2676
 IR Inten    --      1.9007                 0.6296                 0.5985

                     13                     14                     15
                      A                      A                      A
 Frequencies --    321.5985               347.1337               361.6771
 Red. masses --      4.0951                 4.2645                 6.5554
 Frc consts  --      0.2495                 0.3028                 0.5052
 IR Inten    --      5.6807                 2.1727                 1.2998

                     16                     17                     18
                      A                      A                      A
 Frequencies --    382.6649               436.7480               471.2945
 Red. masses --      6.8477                 5.0182                 4.1178
 Frc consts  --      0.5908                 0.5640                 0.5389
 IR Inten    --      1.6640                 3.3326                 2.3708

                     19                     20                     21
                      A                      A                      A
 Frequencies --    498.8999               524.2656               534.9979
 Red. masses --      4.4206                 3.8829                 3.8733
 Frc consts  --      0.6483                 0.6288                 0.6532
 IR Inten    --      1.4245                 0.3451                 3.2120

                     22                     23                     24
                      A                      A                      A
 Frequencies --    555.5655               605.5460               611.0446
 Red. masses --      3.8825                 4.5600                 3.8503
 Frc consts  --      0.7060                 0.9852                 0.8470
 IR Inten    --      1.1555                12.1942                 8.8186

                     25                     26                     27
                      A                      A                      A
 Frequencies --    650.2794               668.4778               738.9834
 Red. masses --      4.2789                 3.0004                 3.3806
 Frc consts  --      1.0661                 0.7899                 1.0877
 IR Inten    --      6.7827                13.5863                 2.6137

                     28                     29                     30
                      A                      A                      A
 Frequencies --    747.0274               757.0497               764.4500
 Red. masses --      1.2507                 3.0993                 2.3151
 Frc consts  --      0.4112                 1.0466                 0.7971
 IR Inten    --      3.3905                 1.7574                 6.7813

                     31                     32                     33
                      A                      A                      A
 Frequencies --    786.9583               789.4797               809.4363
 Red. masses --      3.2538                 1.9413                 2.0234
 Frc consts  --      1.1872                 0.7129                 0.7811
 IR Inten    --     12.2292                17.5639                28.5997

                     34                     35                     36
                      A                      A                      A
 Frequencies --    864.6387               867.0304               880.5586
 Red. masses --      1.5910                 2.0278                 1.3550
 Frc consts  --      0.7008                 0.8981                 0.6190
 IR Inten    --      9.7233                 2.4659                18.3541

                     37                     38                     39
                      A                      A                      A
 Frequencies --    890.1624               900.3731               916.9408
 Red. masses --      1.4162                 2.3001                 1.7579
 Frc consts  --      0.6612                 1.0986                 0.8708
 IR Inten    --      3.8753                16.6290                 2.4427

                     40                     41                     42
                      A                      A                      A
 Frequencies --    919.3439               943.2579               971.1312
 Red. masses --      2.0135                 1.3791                 1.2518
 Frc consts  --      1.0027                 0.7229                 0.6956
 IR Inten    --      5.4886                 3.1551                 0.0240

                     43                     44                     45
                      A                      A                      A
 Frequencies --   1042.6298              1059.5036              1091.7370
 Red. masses --      2.9888                 2.1850                 2.3854
 Frc consts  --      1.9143                 1.4452                 1.6751
 IR Inten    --      1.8801                 5.0311                45.2014

                     46                     47                     48
                      A                      A                      A
 Frequencies --   1110.6391              1115.4451              1137.9127
 Red. masses --      1.8632                 2.2784                 2.1984
 Frc consts  --      1.3541                 1.6702                 1.6772
 IR Inten    --      3.1179                21.6821                15.7160

                     49                     50                     51
                      A                      A                      A
 Frequencies --   1176.5365              1180.6276              1197.1490
 Red. masses --      4.2593                 1.2278                 2.7406
 Frc consts  --      3.4738                 1.0084                 2.3141
 IR Inten    --     54.0465                 8.0777                63.5722

                     52                     53                     54
                      A                      A                      A
 Frequencies --   1217.6124              1245.5053              1253.7321
 Red. masses --      1.6341                 2.5038                 1.8094
 Frc consts  --      1.4274                 2.2885                 1.6757
 IR Inten    --     17.0227                12.9986                 1.6471

                     55                     56                     57
                      A                      A                      A
 Frequencies --   1257.1249              1288.9768              1309.7700
 Red. masses --      1.3967                 1.5679                 1.4716
 Frc consts  --      1.3005                 1.5349                 1.4874
 IR Inten    --      0.7211                 3.2110                 6.6504

                     58                     59                     60
                      A                      A                      A
 Frequencies --   1325.3220              1338.9614              1380.5212
 Red. masses --      1.1167                 6.7695                 1.5214
 Frc consts  --      1.1557                 7.1506                 1.7084
 IR Inten    --      0.9845                 0.1100                 0.7276

                     61                     62                     63
                      A                      A                      A
 Frequencies --   1410.3904              1413.7712              1471.5050
 Red. masses --      1.5233                 1.3839                 2.7722
 Frc consts  --      1.7853                 1.6297                 3.5367
 IR Inten    --      2.0343                 1.4055                17.4128

                     64                     65                     66
                      A                      A                      A
 Frequencies --   1476.0148              1483.5520              1492.7452
 Red. masses --      2.3367                 1.3761                 1.0617
 Frc consts  --      2.9994                 1.7845                 1.3939
 IR Inten    --      8.6087                 0.6651                 0.1673

                     67                     68                     69
                      A                      A                      A
 Frequencies --   1499.2568              1509.2307              1514.5405
 Red. masses --      1.0407                 1.0832                 2.6845
 Frc consts  --      1.3783                 1.4537                 3.6280
 IR Inten    --      5.8879                 4.0173                42.8117

                     70                     71                     72
                      A                      A                      A
 Frequencies --   1604.0589              1617.0927              1645.2865
 Red. masses --      5.8076                 8.8902                 6.8503
 Frc consts  --      8.8041                13.6971                10.9255
 IR Inten    --     10.9246                29.9606                 1.3763

                     73                     74                     75
                      A                      A                      A
 Frequencies --   1670.8464              2631.0751              3016.8227
 Red. masses --      7.4939                 1.0389                 1.0609
 Frc consts  --     12.3263                 4.2372                 5.6889
 IR Inten    --      8.0957                 3.0374                 6.6990

                     76                     77                     78
                      A                      A                      A
 Frequencies --   3028.5055              3033.0066              3054.0750
 Red. masses --      1.0405                 1.0557                 1.0978
 Frc consts  --      5.6230                 5.7220                 6.0329
 IR Inten    --     20.2112                47.1820                 2.0061

                     79                     80                     81
                      A                      A                      A
 Frequencies --   3073.1047              3098.2792              3104.0666
 Red. masses --      1.1021                 1.1028                 1.1007
 Frc consts  --      6.1325                 6.2370                 6.2488
 IR Inten    --     13.3419                52.4141                31.3264

                     82                     83                     84
                      A                      A                      A
 Frequencies --   3139.9975              3158.3966              3171.6037
 Red. masses --      1.0870                 1.0871                 1.0861
 Frc consts  --      6.3146                 6.3891                 6.4368
 IR Inten    --     13.8828                18.3566                 4.0291

                     85                     86                     87
                      A                      A                      A
 Frequencies --   3184.1978              3197.1127              3207.0221
 Red. masses --      1.0877                 1.0926                 1.0969
 Frc consts  --      6.4978                 6.5799                 6.6470
 IR Inten    --      5.8847                16.3800                10.0284

 - Thermochemistry -
 -------------------
 Temperature   298.150 Kelvin.  Pressure   1.00000 Atm.
 Atom     1 has atomic number  6 and mass  12.00000

 Molecular mass:   242.07654 amu.
 Principal axes and moments of inertia in atomic units:
                           1         2         3
     Eigenvalues --  2985.246585464.176507771.34995
           X            0.99909   0.04229  -0.00624
           Y           -0.04223   0.99905   0.01042
           Z            0.00667  -0.01014   0.99993
 This molecule is an asymmetric top.
 Rotational symmetry number  1.
 Warning -- assumption of classical behavior for rotation
           may cause significant error
 Rotational temperatures (Kelvin)      0.02901     0.01585     0.01115
 Rotational constants (GHZ):           0.60455     0.33029     0.23223
 Zero-point vibrational energy     641119.9 (Joules/Mol)
                                  153.23134 (Kcal/Mol)
 Warning -- explicit consideration of  24 degrees of freedom as
           vibrations may cause significant error
 Vibrational temperatures:     68.16    80.99    97.40   123.96   145.01
          (Kelvin)            225.25   277.86   326.81   345.03   375.16
                              411.46   450.26   462.71   499.45   520.37
                              550.57   628.38   678.09   717.81   754.30
                              769.74   799.33   871.25   879.16   935.61
                              961.79  1063.23  1074.81  1089.23  1099.87
                             1132.26  1135.89  1164.60  1244.02  1247.46
                             1266.93  1280.75  1295.44  1319.27  1322.73
                             1357.14  1397.24  1500.11  1524.39  1570.77
                             1597.96  1604.88  1637.20  1692.77  1698.66
                             1722.43  1751.87  1792.00  1803.84  1808.72
                             1854.55  1884.47  1906.84  1926.47  1986.26
                             2029.24  2034.10  2117.17  2123.66  2134.50
                             2147.73  2157.10  2171.45  2179.09  2307.88
                             2326.64  2367.20  2403.98  3785.53  4340.53
                             4357.34  4363.82  4394.13  4421.51  4457.73
                             4466.06  4517.76  4544.23  4563.23  4581.35
                             4599.93  4614.19

 Zero-point correction=                           0.244190 (Hartree/Particle)
 Thermal correction to Energy=                    0.259327
 Thermal correction to Enthalpy=                  0.260271
 Thermal correction to Gibbs Free Energy=         0.201631
 Sum of electronic and zero-point Energies=          -1053.083988
 Sum of electronic and thermal Energies=             -1053.068851
 Sum of electronic and thermal Enthalpies=           -1053.067907
 Sum of electronic and thermal Free Energies=        -1053.126547

                     E (Thermal)             CV                S
                      KCal/Mol        Cal/Mol-Kelvin    Cal/Mol-Kelvin
 Total                  162.730             59.822            123.419
 Electronic               0.000              0.000              0.000
 Translational            0.889              2.981             42.353
 Rotational               0.889              2.981             33.205
 Vibrational            160.953             53.860             47.860
 Vibration     1          0.595              1.979              4.924
 Vibration     2          0.596              1.975              4.583
 Vibration     3          0.598              1.970              4.219
 Vibration     4          0.601              1.959              3.746
 Vibration     5          0.604              1.948              3.439
 Vibration     6          0.620              1.895              2.591
 Vibration     7          0.635              1.849              2.198
 Vibration     8          0.651              1.800              1.901
 Vibration     9          0.657              1.780              1.804
 Vibration    10          0.669              1.745              1.657
 Vibration    11          0.684              1.700              1.498
 Vibration    12          0.701              1.649              1.347
 Vibration    13          0.707              1.632              1.302
 Vibration    14          0.725              1.581              1.179
 Vibration    15          0.736              1.551              1.115
 Vibration    16          0.752              1.507              1.029
 Vibration    17          0.797              1.390              0.837
 Vibration    18          0.828              1.314              0.734
 Vibration    19          0.854              1.252              0.661
 Vibration    20          0.879              1.196              0.600
 Vibration    21          0.890              1.173              0.576
 Vibration    22          0.911              1.128              0.533
 Vibration    23          0.964              1.020              0.440
 Vibration    24          0.970              1.008              0.431

                           ! Non-Optimized Parameters !
 Normal termination of Gaussian 16 at Tue May 16 19:49:03 2023.
