 Gaussian 16, Revision A.03,
 Gaussian 16:  ES64L-G16RevA.03 25-Dec-2016

 -----------------------------
 # opt freq b3lyp/6-31g(2df,p)
 -----------------------------

 -------------------
 Title Card Required
 -------------------
 Symbolic Z-matrix:
 Charge =  0 Multiplicity = 1

 SCF Done:  E(RB3LYP) =  -752.104473655     A.U. after   14 cycles
 SCF Done:  E(RB3LYP) =  -752.119636439     A.U. after   12 cycles
 SCF Done:  E(RB3LYP) =  -752.123955507     A.U. after   12 cycles
 SCF Done:  E(RB3LYP) =  -752.127689726     A.U. after   12 cycles
 SCF Done:  E(RB3LYP) =  -752.133490119     A.U. after   13 cycles
 SCF Done:  E(RB3LYP) =  -752.138604923     A.U. after   14 cycles
 SCF Done:  E(RB3LYP) =  -752.141559407     A.U. after   12 cycles
 SCF Done:  E(RB3LYP) =  -752.143084440     A.U. after   12 cycles
 SCF Done:  E(RB3LYP) =  -752.143274751     A.U. after   11 cycles
 SCF Done:  E(RB3LYP) =  -752.143367117     A.U. after   10 cycles
 SCF Done:  E(RB3LYP) =  -752.143389435     A.U. after    9 cycles
 SCF Done:  E(RB3LYP) =  -752.143396745     A.U. after    9 cycles
 SCF Done:  E(RB3LYP) =  -752.143402692     A.U. after    9 cycles
 SCF Done:  E(RB3LYP) =  -752.143403375     A.U. after    8 cycles
 SCF Done:  E(RB3LYP) =  -752.143403551     A.U. after    7 cycles
 SCF Done:  E(RB3LYP) =  -752.143403594     A.U. after    6 cycles
 Optimization completed.
    -- Stationary point found.
 Normal termination of Gaussian 16 at Fri May 19 13:14:41 2023.

 ----------------------------------------------------------------------
 #N Geom=AllCheck Guess=TCheck SCRF=Check GenChk RB3LYP/6-31G(2df,p) Fr
 eq
 ----------------------------------------------------------------------

 Structure from the checkpoint file:  "CCCC1Cdc2ccc3ccccc3c2dCCdC1N.chk"
 -------------------
 Title Card Required
 -------------------
 Charge =  0 Multiplicity = 1

                         Standard orientation:
 ---------------------------------------------------------------------
 Center     Atomic      Atomic             Coordinates (Angstroms)
 Number     Number       Type             X           Y           Z
 ---------------------------------------------------------------------
      1          6           0        3.660775    2.800424    1.389377
      2          6           0        3.663208    1.396027    0.778965
      3          6           0        2.367470    0.624941    1.054141
      4          6           0        2.358053   -0.796036    0.451645
      5          6           0        1.143084   -1.618429    0.777550
      6          6           0       -0.155828   -1.293095    0.504353
      7          6           0       -1.207478   -2.079783    1.129156
      8          6           0       -2.502618   -1.709844    1.091496
      9          6           0       -2.918119   -0.491037    0.436770
     10          6           0       -4.246185   -0.041969    0.512664
     11          6           0       -4.638874    1.140986   -0.090396
     12          6           0       -3.691835    1.906730   -0.776546
     13          6           0       -2.377071    1.475114   -0.866738
     14          6           0       -1.958722    0.264567   -0.287107
     15          6           0       -0.582912   -0.237582   -0.410105
     16          6           0        0.189003    0.134842   -1.494955
     17          6           0        1.489768   -0.283099   -1.864039
     18          6           0        2.459584   -0.826550   -1.058399
     19          7           0        3.569230   -1.446704   -1.580993
     20          1           0        4.596674    3.329186    1.182385
     21          1           0        3.534482    2.759035    2.476899
     22          1           0        2.840204    3.403384    0.985649
     23          1           0        4.517919    0.828853    1.175033
     24          1           0        3.818519    1.472362   -0.304837
     25          1           0        1.512515    1.191201    0.673982
     26          1           0        2.218344    0.525983    2.136757
     27          1           0        3.231050   -1.326904    0.851084
     28          1           0        1.320862   -2.547276    1.313815
     29          1           0       -0.905558   -2.966855    1.678554
     30          1           0       -3.260242   -2.302722    1.595810
     31          1           0       -4.966298   -0.639681    1.064346
     32          1           0       -5.667551    1.477736   -0.017486
     33          1           0       -3.980271    2.848812   -1.231521
     34          1           0       -1.650808    2.102074   -1.371982
     35          1           0       -0.307904    0.748585   -2.241095
     36          1           0        1.743488   -0.164452   -2.916344
     37          1           0        3.678364   -1.439924   -2.583765
     38          1           0        4.433782   -1.369713   -1.067332
 ---------------------------------------------------------------------

 SCF Done:  E(RB3LYP) =  -752.143403594     A.U. after    1 cycles

 The electronic state is 1-A.
 Alpha  occ. eigenvalues --  -14.35150 -10.23227 -10.19546 -10.18158 -10.18105
 Alpha  occ. eigenvalues --  -10.17902 -10.17846 -10.17777 -10.17727 -10.17542
 Alpha  occ. eigenvalues --  -10.17373 -10.17303 -10.17262 -10.17241 -10.17143
 Alpha  occ. eigenvalues --  -10.17128 -10.17114 -10.17095 -10.16867  -0.93020
 Alpha  occ. eigenvalues --   -0.86065  -0.82823  -0.79945  -0.78333  -0.76144
 Alpha  occ. eigenvalues --   -0.74755  -0.72703  -0.70880  -0.67694  -0.63836
 Alpha  occ. eigenvalues --   -0.63469  -0.60036  -0.58721  -0.57850  -0.55745
 Alpha  occ. eigenvalues --   -0.53264  -0.51769  -0.51177  -0.48617  -0.47839
 Alpha  occ. eigenvalues --   -0.46205  -0.45390  -0.43915  -0.43069  -0.42503
 Alpha  occ. eigenvalues --   -0.41963  -0.41202  -0.39900  -0.39097  -0.38457
 Alpha  occ. eigenvalues --   -0.37969  -0.36898  -0.36525  -0.35657  -0.34943
 Alpha  occ. eigenvalues --   -0.33974  -0.32964  -0.32944  -0.32478  -0.31951
 Alpha  occ. eigenvalues --   -0.30689  -0.30485  -0.28643  -0.24722  -0.24200
 Alpha  occ. eigenvalues --   -0.20019  -0.17165
 Alpha virt. eigenvalues --   -0.03822  -0.01306   0.02737   0.03526   0.06625
 Alpha virt. eigenvalues --    0.08604   0.09620   0.10495   0.10727   0.11143
 Alpha virt. eigenvalues --    0.12016   0.13047   0.14178   0.14952   0.15267

 Mulliken charges:
               1
     1  C   -0.381305
     2  C   -0.172563
     3  C   -0.173748
     4  C   -0.155869
     5  C   -0.227107
     6  C    0.248924
     7  C   -0.173253
     8  C   -0.198783
     9  C    0.221570
    10  C   -0.189226
    11  C   -0.126480
    12  C   -0.119733
    13  C   -0.198698
    14  C    0.141632
    15  C   -0.017933
    16  C   -0.133015
    17  C   -0.167772
    18  C    0.316936
    19  N   -0.563312
    20  H    0.108104
    21  H    0.115064
    22  H    0.118769
    23  H    0.081793
    24  H    0.096769
    25  H    0.117878
    26  H    0.092751
    27  H    0.067707
    28  H    0.081809
    29  H    0.089148
    30  H    0.086699
    31  H    0.085773
    32  H    0.089697
    33  H    0.088967
    34  H    0.089451
    35  H    0.086606
    36  H    0.066104
    37  H    0.252433
    38  H    0.254215
 Sum of Mulliken charges =  -0.00000

 Dipole moment (field-independent basis, Debye):
    X=              3.4866    Y=             -0.2549    Z=             -0.8447  Tot=              3.5965
 Quadrupole moment (field-independent basis, Debye-Ang):
   XX=            -95.4530   YY=           -111.3126   ZZ=           -108.0676
   XY=             -4.1231   XZ=             -6.1660   YZ=             -3.5043

  Exact polarizability: 327.437 -35.289 176.085 -22.160 -31.216 154.923
 Approx polarizability: 528.526 -79.337 299.240 -44.907 -77.725 277.359

                      1                      2                      3
                      A                      A                      A
 Frequencies --     40.2781                59.9287                79.3530
 Red. masses --      4.0959                 3.8252                 1.7178
 Frc consts  --      0.0039                 0.0081                 0.0064
 IR Inten    --      0.0447                 0.3598                 0.3740

                      4                      5                      6
                      A                      A                      A
 Frequencies --     91.5838                97.9088               121.7289
 Red. masses --      3.4630                 3.2499                 3.9974
 Frc consts  --      0.0171                 0.0184                 0.0349
 IR Inten    --      0.4423                 2.6163                 1.1467

                      7                      8                      9
                      A                      A                      A
 Frequencies --    183.1428               209.3632               219.4487
 Red. masses --      3.5136                 4.2640                 3.7588
 Frc consts  --      0.0694                 0.1101                 0.1067
 IR Inten    --      0.6175                 0.4060                 1.7883

                     10                     11                     12
                      A                      A                      A
 Frequencies --    233.8704               254.6327               288.9932
 Red. masses --      1.9804                 1.4253                 4.3889
 Frc consts  --      0.0638                 0.0544                 0.2160
 IR Inten    --      0.1928                 0.1023                 0.9332

                     13                     14                     15
                      A                      A                      A
 Frequencies --    306.0261               354.0122               375.6219
 Red. masses --      3.6535                 3.2313                 2.4800
 Frc consts  --      0.2016                 0.2386                 0.2062
 IR Inten    --      2.5307                 3.7511                19.4377

                     16                     17                     18
                      A                      A                      A
 Frequencies --    385.2714               404.8290               426.5975
 Red. masses --      3.0218                 2.0336                 3.1546
 Frc consts  --      0.2643                 0.1964                 0.3382
 IR Inten    --     47.4622               111.7462                21.9234

                     19                     20                     21
                      A                      A                      A
 Frequencies --    436.2540               462.9234               471.6379
 Red. masses --      2.7111                 2.8221                 3.1925
 Frc consts  --      0.3040                 0.3563                 0.4184
 IR Inten    --     20.3353                83.1215                19.1217

                     22                     23                     24
                      A                      A                      A
 Frequencies --    509.0467               513.2679               536.8336
 Red. masses --      1.7310                 3.0996                 3.7447
 Frc consts  --      0.2643                 0.4811                 0.6358
 IR Inten    --     80.7621                23.5307                 0.3106

                     25                     26                     27
                      A                      A                      A
 Frequencies --    564.5857               578.7762               629.1718
 Red. masses --      3.5471                 5.5279                 3.0224
 Frc consts  --      0.6662                 1.0910                 0.7049
 IR Inten    --      2.7842                 7.2937                12.4043

                     28                     29                     30
                      A                      A                      A
 Frequencies --    674.1489               694.1111               700.4753
 Red. masses --      4.6774                 4.5883                 4.3654
 Frc consts  --      1.2525                 1.3024                 1.2620
 IR Inten    --      9.8770                 0.9758                 2.1815

                     31                     32                     33
                      A                      A                      A
 Frequencies --    720.5672               740.6518               759.1675
 Red. masses --      3.5540                 1.2627                 1.3416
 Frc consts  --      1.0872                 0.4081                 0.4556
 IR Inten    --      2.3945                 1.9867                17.2480

                     34                     35                     36
                      A                      A                      A
 Frequencies --    768.6711               786.1590               803.8423
 Red. masses --      3.2390                 1.7218                 2.1154
 Frc consts  --      1.1276                 0.6270                 0.8053
 IR Inten    --      1.3358                26.1156                 0.9302

                     37                     38                     39
                      A                      A                      A
 Frequencies --    817.3139               845.0287               850.6210
 Red. masses --      1.9335                 1.7171                 1.6800
 Frc consts  --      0.7610                 0.7224                 0.7162
 IR Inten    --      6.4509                13.7473                36.2899

                     40                     41                     42
                      A                      A                      A
 Frequencies --    870.4419               891.3501               911.9321
 Red. masses --      4.0177                 1.5732                 1.8023
 Frc consts  --      1.7935                 0.7364                 0.8831
 IR Inten    --      5.1021                 2.8951                 2.6730

                     43                     44                     45
                      A                      A                      A
 Frequencies --    916.9490               932.5061               939.8742
 Red. masses --      1.5753                 1.3649                 1.4185
 Frc consts  --      0.7804                 0.6993                 0.7383
 IR Inten    --      1.6202                 7.1848                 2.2000

                     46                     47                     48
                      A                      A                      A
 Frequencies --    958.3895               966.0370               969.0418
 Red. masses --      1.2679                 2.3083                 1.6077
 Frc consts  --      0.6861                 1.2692                 0.8895
 IR Inten    --      1.0751                 0.4696                 0.2735

                     49                     50                     51
                      A                      A                      A
 Frequencies --   1006.7990              1051.2223              1066.3945
 Red. masses --      3.8915                 2.3922                 2.1981
 Frc consts  --      2.3241                 1.5576                 1.4728
 IR Inten    --      1.4995                 0.5480                 3.6955

                     52                     53                     54
                      A                      A                      A
 Frequencies --   1075.6666              1080.2543              1116.5672
 Red. masses --      1.9372                 1.9681                 1.8814
 Frc consts  --      1.3206                 1.3531                 1.3820
 IR Inten    --      3.1470                 1.9206                 1.0181

                     55                     56                     57
                      A                      A                      A
 Frequencies --   1126.5306              1137.6791              1160.3459
 Red. masses --      2.1531                 2.1201                 1.5221
 Frc consts  --      1.6099                 1.6167                 1.2074
 IR Inten    --      4.5007                 0.3509                 2.6748

                     58                     59                     60
                      A                      A                      A
 Frequencies --   1184.3184              1190.1170              1226.3142
 Red. masses --      1.1065                 1.3074                 1.5262
 Frc consts  --      0.9144                 1.0911                 1.3523
 IR Inten    --      0.8129                15.0191                25.4134

                     61                     62                     63
                      A                      A                      A
 Frequencies --   1239.4110              1251.6164              1275.4723
 Red. masses --      2.1046                 1.4859                 1.7982
 Frc consts  --      1.9048                 1.3715                 1.7236
 IR Inten    --     11.9860                22.5816                15.9605

                     64                     65                     66
                      A                      A                      A
 Frequencies --   1289.4351              1292.9693              1306.6159
 Red. masses --      1.3592                 1.9930                 2.2677
 Frc consts  --      1.3315                 1.9630                 2.2810
 IR Inten    --      7.3094                52.8225                 2.6333

                     67                     68                     69
                      A                      A                      A
 Frequencies --   1326.3612              1329.1672              1353.2406
 Red. masses --      1.1622                 1.5494                 2.6198
 Frc consts  --      1.2046                 1.6128                 2.8266
 IR Inten    --      3.1425                 5.0788                 6.7448

                     70                     71                     72
                      A                      A                      A
 Frequencies --   1357.6187              1381.9334              1389.2333
 Red. masses --      1.7449                 1.5647                 1.5540
 Frc consts  --      1.8948                 1.7606                 1.7670
 IR Inten    --      0.9734                23.0024                 5.2159

                     73                     74                     75
                      A                      A                      A
 Frequencies --   1412.5863              1422.7095              1425.7550
 Red. masses --      1.2327                 2.1712                 2.2311
 Frc consts  --      1.4492                 2.5893                 2.6721
 IR Inten    --      1.7657                 3.9158                11.2538

                     76                     77                     78
                      A                      A                      A
 Frequencies --   1436.9678              1481.4781              1482.7376
 Red. masses --      1.6995                 1.1752                 2.0659
 Frc consts  --      2.0676                 1.5196                 2.6761
 IR Inten    --      3.3673                 3.8231                34.6486

                     79                     80                     81
                      A                      A                      A
 Frequencies --   1492.9251              1499.2892              1503.5301
 Red. masses --      1.0684                 1.0408                 3.2638
 Frc consts  --      1.4030                 1.3784                 4.3471
 IR Inten    --      0.9681                 5.5201                60.1949

                     82                     83                     84
                      A                      A                      A
 Frequencies --   1509.4436              1531.4272              1584.6131
 Red. masses --      1.0817                 4.3309                 5.1082
 Frc consts  --      1.4521                 5.9844                 7.5572
 IR Inten    --      2.9144                44.1548                 6.4468

                     85                     86                     87
                      A                      A                      A
 Frequencies --   1616.5185              1625.6374              1644.2400
 Red. masses --      5.7233                 2.5413                 5.8683
 Frc consts  --      8.8117                 3.9569                 9.3474
 IR Inten    --     31.5036                49.5329                 0.1462

                     88                     89                     90
                      A                      A                      A
 Frequencies --   1656.1177              1666.5776              3000.6336
 Red. masses --      1.5103                 6.6424                 1.0632
 Frc consts  --      2.4407                10.8698                 5.6402
 IR Inten    --    234.0685                 7.3206                23.2972

                     91                     92                     93
                      A                      A                      A
 Frequencies --   3021.0736              3028.2643              3030.5656
 Red. masses --      1.0833                 1.0519                 1.0569
 Frc consts  --      5.8253                 5.6837                 5.7192
 IR Inten    --     44.2098                 9.6898                23.7727

                     94                     95                     96
                      A                      A                      A
 Frequencies --   3043.4906              3093.2075              3099.0954
 Red. masses --      1.0870                 1.0981                 1.1012
 Frc consts  --      5.9322                 6.1902                 6.2315
 IR Inten    --     27.5799                 3.3512                35.0624

                     97                     98                     99
                      A                      A                      A
 Frequencies --   3101.2187              3125.8163              3147.5218
 Red. masses --      1.1001                 1.0852                 1.0878
 Frc consts  --      6.2336                 6.2470                 6.3495
 IR Inten    --     53.4481                36.5860                14.0969

                    100                    101                    102
                      A                      A                      A
 Frequencies --   3156.4913              3159.8566              3161.4081
 Red. masses --      1.0845                 1.0867                 1.0859
 Frc consts  --      6.3664                 6.3931                 6.3944
 IR Inten    --      3.4214                 9.3242                 8.1211

                    103                    104                    105
                      A                      A                      A
 Frequencies --   3171.3903              3177.1712              3185.9172
 Red. masses --      1.0868                 1.0959                 1.0910
 Frc consts  --      6.4402                 6.5179                 6.5242
 IR Inten    --      2.2474                38.8196                27.5192

                    106                    107                    108
                      A                      A                      A
 Frequencies --   3195.8234              3566.4366              3678.7006
 Red. masses --      1.0967                 1.0454                 1.1007
 Frc consts  --      6.5993                 7.8341                 8.7760
 IR Inten    --     27.6971                44.9874                14.2188

 - Thermochemistry -
 -------------------
 Temperature   298.150 Kelvin.  Pressure   1.00000 Atm.
 Atom     1 has atomic number  6 and mass  12.00000

 Molecular mass:   249.15175 amu.
 Principal axes and moments of inertia in atomic units:
                           1         2         3
     Eigenvalues --  2680.426167848.145928551.12829
           X            0.99991   0.01250   0.00501
           Y           -0.01251   0.99992   0.00263
           Z           -0.00497  -0.00270   0.99998
 This molecule is an asymmetric top.
 Rotational symmetry number  1.
 Warning -- assumption of classical behavior for rotation
           may cause significant error
 Rotational temperatures (Kelvin)      0.03231     0.01104     0.01013
 Rotational constants (GHZ):           0.67330     0.22996     0.21105
 Zero-point vibrational energy     847579.9 (Joules/Mol)
                                  202.57645 (Kcal/Mol)
 Warning -- explicit consideration of  26 degrees of freedom as
           vibrations may cause significant error
 Vibrational temperatures:     57.95    86.22   114.17   131.77   140.87
          (Kelvin)            175.14   263.50   301.23   315.74   336.49
                              366.36   415.80   440.30   509.34   540.44
                              554.32   582.46   613.78   627.67   666.04
                              678.58   732.40   738.48   772.38   812.31
                              832.73   905.24   969.95   998.67  1007.83
                             1036.74  1065.63  1092.27  1105.95  1131.11
                             1156.55  1175.93  1215.81  1223.85  1252.37
                             1282.45  1312.07  1319.29  1341.67  1352.27
                             1378.91  1389.91  1394.24  1448.56  1512.47
                             1534.30  1547.64  1554.24  1606.49  1620.83
                             1636.87  1669.48  1703.97  1712.31  1764.39
                             1783.24  1800.80  1835.12  1855.21  1860.29
                             1879.93  1908.34  1912.38  1947.01  1953.31
                             1988.29  1998.80  2032.40  2046.96  2051.34
                             2067.48  2131.52  2133.33  2147.99  2157.14
                             2163.24  2171.75  2203.38  2279.90  2325.81
                             2338.93  2365.69  2382.78  2397.83  4317.24
                             4346.65  4357.00  4360.31  4378.90  4450.44
                             4458.91  4461.96  4497.35  4528.58  4541.49
                             4546.33  4548.56  4562.92  4571.24  4583.82
                             4598.08  5131.31  5292.83

 Zero-point correction=                           0.322826 (Hartree/Particle)
 Thermal correction to Energy=                    0.339322
 Thermal correction to Enthalpy=                  0.340266
 Thermal correction to Gibbs Free Energy=         0.279255
 Sum of electronic and zero-point Energies=           -751.820577
 Sum of electronic and thermal Energies=              -751.804082
 Sum of electronic and thermal Enthalpies=            -751.803137
 Sum of electronic and thermal Free Energies=         -751.864148

                     E (Thermal)             CV                S
                      KCal/Mol        Cal/Mol-Kelvin    Cal/Mol-Kelvin
 Total                  212.928             67.297            128.408
 Electronic               0.000              0.000              0.000
 Translational            0.889              2.981             42.439
 Rotational               0.889              2.981             33.553
 Vibrational            211.150             61.335             52.417
 Vibration     1          0.594              1.981              5.245
 Vibration     2          0.597              1.973              4.460
 Vibration     3          0.600              1.963              3.907
 Vibration     4          0.602              1.955              3.626
 Vibration     5          0.603              1.951              3.496
 Vibration     6          0.609              1.931              3.073
 Vibration     7          0.631              1.863              2.296
 Vibration     8          0.642              1.826              2.049
 Vibration     9          0.647              1.811              1.964
 Vibration    10          0.654              1.789              1.849
 Vibration    11          0.665              1.755              1.698
 Vibration    12          0.686              1.694              1.480
 Vibration    13          0.696              1.662              1.384
 Vibration    14          0.730              1.567              1.148
 Vibration    15          0.746              1.522              1.057
 Vibration    16          0.754              1.502              1.018
 Vibration    17          0.770              1.460              0.945
 Vibration    18          0.788              1.412              0.870
 Vibration    19          0.797              1.391              0.838
 Vibration    20          0.821              1.332              0.758
 Vibration    21          0.829              1.313              0.733
 Vibration    22          0.864              1.230              0.636
 Vibration    23          0.868              1.221              0.626
 Vibration    24          0.892              1.169              0.572
 Vibration    25          0.920              1.108              0.515
 Vibration    26          0.935              1.077              0.488

 Optimization completed.
    -- Stationary point found.
 Normal termination of Gaussian 16 at Fri May 19 19:03:39 2023.
