 Gaussian 16, Revision A.03,
 Gaussian 16:  ES64L-G16RevA.03 25-Dec-2016

 -----------------------------
 # opt freq b3lyp/6-31g(2df,p)
 -----------------------------

 -------------------
 Title Card Required
 -------------------
 Symbolic Z-matrix:
 Charge =  0 Multiplicity = 1

 SCF Done:  E(RB3LYP) =  -593.631703931     A.U. after   26 cycles
 SCF Done:  E(RB3LYP) =  -593.962455438     A.U. after   21 cycles
 SCF Done:  E(RB3LYP) =  -594.096731060     A.U. after   24 cycles
 SCF Done:  E(RB3LYP) =  -594.232896103     A.U. after   20 cycles
 SCF Done:  E(RB3LYP) =  -594.360084778     A.U. after   21 cycles
 SCF Done:  E(RB3LYP) =  -594.440200271     A.U. after   20 cycles
 SCF Done:  E(RB3LYP) =  -594.525891691     A.U. after   18 cycles
 SCF Done:  E(RB3LYP) =  -594.571354608     A.U. after   16 cycles
 SCF Done:  E(RB3LYP) =  -594.621814238     A.U. after   17 cycles
 SCF Done:  E(RB3LYP) =  -594.645319497     A.U. after   16 cycles
 SCF Done:  E(RB3LYP) =  -594.926727078     A.U. after    8 cycles
 SCF Done:  E(RB3LYP) =  -594.926755249     A.U. after    9 cycles
 SCF Done:  E(RB3LYP) =  -594.926773597     A.U. after    9 cycles
 SCF Done:  E(RB3LYP) =  -594.926780630     A.U. after    8 cycles
 SCF Done:  E(RB3LYP) =  -594.926782657     A.U. after    8 cycles
 SCF Done:  E(RB3LYP) =  -594.926783423     A.U. after    7 cycles
 SCF Done:  E(RB3LYP) =  -594.926784408     A.U. after    7 cycles
 SCF Done:  E(RB3LYP) =  -594.926785362     A.U. after    7 cycles
 SCF Done:  E(RB3LYP) =  -594.926785881     A.U. after    7 cycles
 Optimization completed.
    -- Stationary point found.

 The electronic state is 1-A.
 Alpha  occ. eigenvalues --  -19.09605 -14.31639 -10.25453 -10.25286 -10.24364
 Alpha  occ. eigenvalues --  -10.24075 -10.23470 -10.22616 -10.21670 -10.21360
 Alpha  occ. eigenvalues --  -10.17858 -10.16905 -10.16875 -10.16459  -1.00778
 Alpha  occ. eigenvalues --   -0.96059  -0.93273  -0.86567  -0.77929  -0.75450
 Alpha  occ. eigenvalues --   -0.72877  -0.67551  -0.62548  -0.59335  -0.58667
 Alpha  occ. eigenvalues --   -0.58289  -0.54138  -0.51991  -0.49417  -0.48550
 Alpha  occ. eigenvalues --   -0.47578  -0.44857  -0.43868  -0.43285  -0.42076
 Alpha  occ. eigenvalues --   -0.41360  -0.39831  -0.39170  -0.37477  -0.36810
 Alpha  occ. eigenvalues --   -0.34653  -0.33801  -0.33370  -0.32108  -0.31045
 Alpha  occ. eigenvalues --   -0.29277  -0.26423  -0.25077  -0.22465  -0.21795
 Alpha virt. eigenvalues --   -0.03499  -0.00855   0.06050   0.08045   0.10058
 Alpha virt. eigenvalues --    0.10773   0.11516   0.12045   0.12867   0.13991
 Alpha virt. eigenvalues --    0.14496   0.15821   0.16149   0.16341   0.16887

 Mulliken charges:
               1
     1  C   -0.383579
     2  C   -0.172259
     3  C   -0.239963
     4  C    0.154094
     5  C   -0.148209
     6  C   -0.346799
     7  C    0.395001
     8  C   -0.479304
     9  C    0.408920
    10  C   -0.472364
    11  O   -0.379079
    12  C    0.333784
    13  C    0.164482
    14  N   -0.559480
    15  H    0.110193
    16  H    0.122153
    17  H    0.104311
    18  H    0.138552
    19  H    0.072415
    20  H    0.083498
    21  H    0.108703
    22  H    0.127299
    23  H    0.129834
    24  H    0.165185
    25  H    0.099359
    26  H    0.225748
    27  H    0.237504
 Sum of Mulliken charges =  -0.00000

 Dipole moment (field-independent basis, Debye):
    X=             -1.9606    Y=             -3.2630    Z=             -1.0560  Tot=              3.9504
 Quadrupole moment (field-independent basis, Debye-Ang):
   XX=            -66.7545   YY=            -87.6394   ZZ=            -80.6543
   XY=             -2.6029   XZ=              1.4768   YZ=             -1.2602

 Normal termination of Gaussian 16 at Sat May 20 19:49:14 2023.

 ----------------------------------------------------------------------
 #N Geom=AllCheck Guess=TCheck SCRF=Check GenChk RB3LYP/6-31G(2df,p) Fr
 eq
 ----------------------------------------------------------------------

 Structure from the checkpoint file:  "CCCC1dCCdC2CdC2CqdOrCdC1N.chk"
 -------------------
 Title Card Required
 -------------------
 Charge =  0 Multiplicity = 1

                         Standard orientation:
 ---------------------------------------------------------------------
 Center     Atomic      Atomic             Coordinates (Angstroms)
 Number     Number       Type             X           Y           Z
 ---------------------------------------------------------------------
      1          6           0        4.211408    0.887871   -0.361229
      2          6           0        3.009011    0.230374    0.320891
      3          6           0        2.008112   -0.346340   -0.690338
      4          6           0        0.799778   -1.029725   -0.056291
      5          6           0       -0.441707   -1.108811   -0.917862
      6          6           0       -1.477965   -1.314063    0.144967
      7          6           0       -2.738558   -0.635134   -0.079913
      8          6           0       -3.970714   -0.159422   -0.221182
      9          6           0       -2.915454    0.777154   -0.113501
     10          6           0       -2.012027    1.757661    0.080934
     11          8           0        0.307359    2.054283    0.494819
     12          6           0       -0.637337    1.300826    0.302729
     13          6           0       -0.405025   -0.195922    0.265574
     14          7           0        1.057886   -2.160173    0.818519
     15          1           0        4.916529    1.284269    0.375970
     16          1           0        3.893853    1.721128   -0.997252
     17          1           0        4.755344    0.175571   -0.992886
     18          1           0        2.483007    0.964765    0.937592
     19          1           0        3.363907   -0.568062    0.985530
     20          1           0        2.517209   -1.084071   -1.328339
     21          1           0        1.665383    0.459508   -1.347955
     22          1           0       -0.576662   -0.851480   -1.957536
     23          1           0       -1.425639   -2.207233    0.759413
     24          1           0       -5.031067   -0.350129   -0.289188
     25          1           0       -2.218432    2.819086    0.105420
     26          1           0        1.678404   -2.820000    0.356477
     27          1           0        1.536963   -1.843214    1.655896
 ---------------------------------------------------------------------

 SCF Done:  E(RB3LYP) =  -594.926785881     A.U. after    1 cycles
