 Gaussian 16, Revision A.03,
 Gaussian 16:  ES64L-G16RevA.03 25-Dec-2016

 -----------------------------
 # opt freq b3lyp/6-31g(2df,p)
 -----------------------------

 -------------------
 Title Card Required
 -------------------
 Symbolic Z-matrix:
 Charge =  0 Multiplicity = 1

 SCF Done:  E(RB3LYP) =  -1697.98579575     A.U. after   21 cycles
 SCF Done:  E(RB3LYP) =  -1698.06271553     A.U. after   15 cycles
 SCF Done:  E(RB3LYP) =  -1698.15809742     A.U. after   15 cycles
 SCF Done:  E(RB3LYP) =  -1698.21485509     A.U. after   15 cycles
 SCF Done:  E(RB3LYP) =  -1698.25043683     A.U. after   13 cycles
 SCF Done:  E(RB3LYP) =  -1698.27501120     A.U. after   13 cycles
 SCF Done:  E(RB3LYP) =  -1698.29083992     A.U. after   13 cycles
 SCF Done:  E(RB3LYP) =  -1698.29965378     A.U. after   13 cycles
 SCF Done:  E(RB3LYP) =  -1698.30448714     A.U. after   12 cycles
 SCF Done:  E(RB3LYP) =  -1698.30795844     A.U. after   13 cycles
 SCF Done:  E(RB3LYP) =  -1698.31928103     A.U. after   10 cycles
 SCF Done:  E(RB3LYP) =  -1698.31929690     A.U. after   10 cycles
 SCF Done:  E(RB3LYP) =  -1698.31930180     A.U. after    9 cycles
 SCF Done:  E(RB3LYP) =  -1698.31930339     A.U. after    8 cycles
 SCF Done:  E(RB3LYP) =  -1698.31930391     A.U. after    9 cycles
 SCF Done:  E(RB3LYP) =  -1698.31930443     A.U. after    7 cycles
 SCF Done:  E(RB3LYP) =  -1698.31930471     A.U. after    8 cycles
 SCF Done:  E(RB3LYP) =  -1698.31930470     A.U. after    7 cycles
 SCF Done:  E(RB3LYP) =  -1698.31930470     A.U. after    6 cycles
 Optimization completed.
    -- Stationary point found.
 Normal termination of Gaussian 16 at Fri May 19 13:22:53 2023.

 ----------------------------------------------------------------------
 #N Geom=AllCheck Guess=TCheck SCRF=Check GenChk RB3LYP/6-31G(2df,p) Fr
 eq
 ----------------------------------------------------------------------

 Structure from the checkpoint file:  "CCCC1dCqSrc2ccqcs2rSCdCCdC1.chk"
 -------------------
 Title Card Required
 -------------------
 Charge =  0 Multiplicity = 1

                         Standard orientation:
 ---------------------------------------------------------------------
 Center     Atomic      Atomic             Coordinates (Angstroms)
 Number     Number       Type             X           Y           Z
 ---------------------------------------------------------------------
      1          6           0       -5.306322    1.080377    0.537457
      2          6           0       -3.796618    0.920584    0.732619
      3          6           0       -3.057285    0.604106   -0.582290
      4          6           0       -1.544199    0.484439   -0.394515
      5          6           0       -1.007286   -0.720261   -0.016391
      6         16           0       -1.935915   -2.249521    0.142419
      7          6           0        0.401179   -0.977309    0.280820
      8          6           0        1.280359   -0.171510    0.937075
      9          6           0        2.646760   -0.412360    0.577391
     10          6           0        2.800904   -1.537781   -0.178315
     11         16           0        1.276000   -2.270246   -0.549420
     12         16           0        3.786319    0.969348    0.625741
     13          6           0        2.628234    2.124608   -0.104148
     14          6           0        1.591612    1.716505   -0.864603
     15          6           0        0.297743    2.375005   -0.827893
     16          6           0       -0.919037    1.815842   -0.598672
     17          1           0       -5.805373    1.309664    1.483966
     18          1           0       -5.754327    0.162922    0.139727
     19          1           0       -5.534197    1.890414   -0.164440
     20          1           0       -3.593692    0.121756    1.454454
     21          1           0       -3.379039    1.838788    1.164298
     22          1           0       -3.260656    1.398453   -1.308332
     23          1           0       -3.485935   -0.299878   -1.021190
     24          1           0       -2.881206   -2.062817   -0.795593
     25          1           0        0.962742    0.679269    1.520996
     26          1           0        3.710313   -1.930243   -0.607602
     27          1           0        2.670033    3.118362    0.333470
     28          1           0        1.622925    0.727251   -1.301049
     29          1           0        0.307829    3.464138   -0.838697
     30          1           0       -1.698149    2.575158   -0.551052
 ---------------------------------------------------------------------

 SCF Done:  E(RB3LYP) =  -1698.31930470     A.U. after    1 cycles

 The electronic state is 1-A.
 Alpha  occ. eigenvalues --  -88.91016 -88.89576 -88.88689 -10.23690 -10.22518
 Alpha  occ. eigenvalues --  -10.22375 -10.22205 -10.22047 -10.21458 -10.20042
 Alpha  occ. eigenvalues --  -10.19855 -10.19625 -10.19603 -10.19151 -10.18685
 Alpha  occ. eigenvalues --  -10.17819  -7.97125  -7.95655  -7.95197  -5.93524
 Alpha  occ. eigenvalues --   -5.93171  -5.92888  -5.92143  -5.91782  -5.91649
 Alpha  occ. eigenvalues --   -5.91275  -5.91249  -5.90769  -0.89639  -0.84456
 Alpha  occ. eigenvalues --   -0.83117  -0.79013  -0.78076  -0.74956  -0.73877
 Alpha  occ. eigenvalues --   -0.71473  -0.68874  -0.66413  -0.62129  -0.59329
 Alpha  occ. eigenvalues --   -0.57901  -0.56319  -0.54789  -0.51829  -0.49651
 Alpha  occ. eigenvalues --   -0.47419  -0.46561  -0.45341  -0.43195  -0.42366
 Alpha  occ. eigenvalues --   -0.41695  -0.41229  -0.40195  -0.39558  -0.38664
 Alpha  occ. eigenvalues --   -0.37778  -0.37417  -0.35685  -0.35168  -0.34571
 Alpha  occ. eigenvalues --   -0.34038  -0.33439  -0.33060  -0.31463  -0.30659
 Alpha  occ. eigenvalues --   -0.27953  -0.25911  -0.24707  -0.22279  -0.19216
 Alpha virt. eigenvalues --   -0.06570  -0.03343   0.00063   0.01531   0.01964
 Alpha virt. eigenvalues --    0.02863   0.03958   0.06156   0.08006   0.08694
 Alpha virt. eigenvalues --    0.09999   0.11246   0.11765   0.12283   0.13862

 Mulliken charges:
               1
     1  C   -0.380444
     2  C   -0.156926
     3  C   -0.277737
     4  C    0.173631
     5  C    0.002146
     6  S   -0.248234
     7  C    0.147890
     8  C   -0.258217
     9  C    0.152705
    10  C   -0.201319
    11  S   -0.024881
    12  S   -0.130362
    13  C   -0.118489
    14  C   -0.106722
    15  C   -0.133306
    16  C   -0.089877
    17  H    0.116416
    18  H    0.115296
    19  H    0.114220
    20  H    0.122718
    21  H    0.101130
    22  H    0.106945
    23  H    0.088891
    24  H    0.154397
    25  H    0.133384
    26  H    0.145911
    27  H    0.123418
    28  H    0.136848
    29  H    0.098094
    30  H    0.092474
 Sum of Mulliken charges =  -0.00000

 Dipole moment (field-independent basis, Debye):
    X=             -1.5938    Y=              1.5045    Z=             -0.7294  Tot=              2.3099
 Quadrupole moment (field-independent basis, Debye-Ang):
   XX=           -112.9639   YY=           -113.3051   ZZ=           -118.7124
   XY=             -2.8977   XZ=              0.5462   YZ=              2.7821

  Exact polarizability: 273.457  10.655 217.149  11.248   2.979 119.990
 Approx polarizability: 434.716  31.373 405.194  35.037   9.151 229.591

                      1                      2                      3
                      A                      A                      A
 Frequencies --     23.6441                46.9711                53.0084
 Red. masses --      3.6501                 5.4565                 4.5108
 Frc consts  --      0.0012                 0.0071                 0.0075
 IR Inten    --      0.8215                 0.4034                 0.1318

                      4                      5                      6
                      A                      A                      A
 Frequencies --     93.4360               123.9063               153.2290
 Red. masses --      1.6300                 4.9059                 2.7955
 Frc consts  --      0.0084                 0.0444                 0.0387
 IR Inten    --      0.7065                 1.2331                11.3276

                      7                      8                      9
                      A                      A                      A
 Frequencies --    165.9163               189.7931               214.5682
 Red. masses --      5.2776                 3.0226                 7.0988
 Frc consts  --      0.0856                 0.0641                 0.1926
 IR Inten    --      0.5656                 0.9517                 0.5914

                     10                     11                     12
                      A                      A                      A
 Frequencies --    221.1433               237.5494               253.7033
 Red. masses --      6.6812                 1.1419                 2.6688
 Frc consts  --      0.1925                 0.0380                 0.1012
 IR Inten    --      0.2033                 0.1018                 6.1561

                     13                     14                     15
                      A                      A                      A
 Frequencies --    273.2542               275.8370               332.5889
 Red. masses --      3.6531                 2.7397                 3.9772
 Frc consts  --      0.1607                 0.1228                 0.2592
 IR Inten    --      2.2949                 0.7613                 2.3049

                     16                     17                     18
                      A                      A                      A
 Frequencies --    353.3182               389.8689               398.7083
 Red. masses --      4.8547                 4.2176                 5.3013
 Frc consts  --      0.3571                 0.3777                 0.4965
 IR Inten    --      0.0474                 1.1486                 1.4544

                     19                     20                     21
                      A                      A                      A
 Frequencies --    418.9244               452.3145               478.1132
 Red. masses --      4.1597                 5.5064                 4.1893
 Frc consts  --      0.4301                 0.6637                 0.5642
 IR Inten    --      5.0623                 0.1485                16.3189

                     22                     23                     24
                      A                      A                      A
 Frequencies --    495.7214               511.3048               565.1807
 Red. masses --      4.9839                 5.0268                 5.3331
 Frc consts  --      0.7216                 0.7743                 1.0037
 IR Inten    --      3.4142                 2.9285                 3.4653

                     25                     26                     27
                      A                      A                      A
 Frequencies --    627.0846               652.3691               657.2871
 Red. masses --      4.2592                 6.4945                 4.1747
 Frc consts  --      0.9868                 1.6285                 1.0626
 IR Inten    --      1.3736                 8.3870                 6.4484

                     28                     29                     30
                      A                      A                      A
 Frequencies --    710.0842               737.6961               756.1412
 Red. masses --      3.4815                 1.1609                 2.0717
 Frc consts  --      1.0343                 0.3722                 0.6979
 IR Inten    --      2.7416                 1.8890                 8.4608

                     31                     32                     33
                      A                      A                      A
 Frequencies --    760.9866               774.4419               795.7987
 Red. masses --      1.5058                 2.3953                 4.3713
 Frc consts  --      0.5138                 0.8464                 1.6311
 IR Inten    --     21.7123                20.0437                23.0167

                     34                     35                     36
                      A                      A                      A
 Frequencies --    824.6158               836.6077               858.2160
 Red. masses --      3.3951                 1.9935                 2.4855
 Frc consts  --      1.3602                 0.8221                 1.0786
 IR Inten    --     12.7180                76.8742                 2.1390

                     37                     38                     39
                      A                      A                      A
 Frequencies --    878.5996               892.3503               894.8327
 Red. masses --      1.6660                 1.8414                 1.5903
 Frc consts  --      0.7577                 0.8639                 0.7503
 IR Inten    --      2.3537                 1.6175                 8.9290

                     40                     41                     42
                      A                      A                      A
 Frequencies --    926.8267               944.2673               986.1980
 Red. masses --      2.2494                 1.6455                 1.2835
 Frc consts  --      1.1385                 0.8644                 0.7355
 IR Inten    --     17.4333                 4.7741                 2.8447

                     43                     44                     45
                      A                      A                      A
 Frequencies --   1039.1848              1043.6296              1075.2431
 Red. masses --      2.8637                 1.1604                 2.0853
 Frc consts  --      1.8221                 0.7447                 1.4205
 IR Inten    --      0.7922                28.8420                16.4515

                     46                     47                     48
                      A                      A                      A
 Frequencies --   1088.5359              1105.2743              1121.6734
 Red. masses --      1.8074                 2.0667                 2.9906
 Frc consts  --      1.2618                 1.4876                 2.2169
 IR Inten    --      2.5849                11.2142                 7.7208

                     49                     50                     51
                      A                      A                      A
 Frequencies --   1125.4167              1200.2164              1208.7973
 Red. masses --      3.2393                 2.3027                 1.4402
 Frc consts  --      2.4173                 1.9543                 1.2399
 IR Inten    --      4.2576                21.7800                 9.5115

                     52                     53                     54
                      A                      A                      A
 Frequencies --   1229.7526              1258.7413              1300.9650
 Red. masses --      1.2263                 1.3938                 1.3353
 Frc consts  --      1.0926                 1.3012                 1.3316
 IR Inten    --      1.6789                 0.7629                 2.4543

                     55                     56                     57
                      A                      A                      A
 Frequencies --   1316.8662              1323.0875              1337.4694
 Red. masses --      1.2960                 1.1105                 1.2197
 Frc consts  --      1.3242                 1.1454                 1.2855
 IR Inten    --      6.8845                 0.0715                 3.1544

                     58                     59                     60
                      A                      A                      A
 Frequencies --   1338.9512              1373.0004              1411.8073
 Red. masses --      2.6349                 1.4351                 1.2317
 Frc consts  --      2.7832                 1.5940                 1.4464
 IR Inten    --     15.8251                 1.7980                 0.4852

                     61                     62                     63
                      A                      A                      A
 Frequencies --   1456.1390              1478.9843              1487.6389
 Red. masses --      1.4557                 6.6386                 1.0845
 Frc consts  --      1.8185                 8.5557                 1.4141
 IR Inten    --      1.8249                 3.1994                 0.6359

                     64                     65                     66
                      A                      A                      A
 Frequencies --   1498.8240              1500.7042              1514.2540
 Red. masses --      1.0423                 1.0780                 1.1153
 Frc consts  --      1.3796                 1.4305                 1.5068
 IR Inten    --      6.1333                 1.1171                 8.0088

                     67                     68                     69
                      A                      A                      A
 Frequencies --   1550.7253              1573.2029              1580.3491
 Red. masses --      5.5459                 5.9527                 5.6746
 Frc consts  --      7.8576                 8.6802                 8.3501
 IR Inten    --      0.9664                 2.5433                 6.7464

                     70                     71                     72
                      A                      A                      A
 Frequencies --   1632.0328              2678.5414              3027.9646
 Red. masses --      5.6876                 1.0380                 1.0502
 Frc consts  --      8.9256                 4.3878                 5.6732
 IR Inten    --     17.5842                 6.0040                12.0795

                     73                     74                     75
                      A                      A                      A
 Frequencies --   3029.3501              3047.5481              3065.4197
 Red. masses --      1.0469                 1.0699                 1.0913
 Frc consts  --      5.6602                 5.8543                 6.0419
 IR Inten    --     30.2875                25.6518                 6.7427

                     76                     77                     78
                      A                      A                      A
 Frequencies --   3086.2724              3099.9447              3103.4348
 Red. masses --      1.0982                 1.1024                 1.1006
 Frc consts  --      6.1631                 6.2418                 6.2456
 IR Inten    --      5.0597                53.8297                31.3166

                     79                     80                     81
                      A                      A                      A
 Frequencies --   3115.2717              3138.9552              3163.7739
 Red. masses --      1.0818                 1.0891                 1.0904
 Frc consts  --      6.1859                 6.3227                 6.4304
 IR Inten    --      3.6786                31.4968                 8.6355

                     82                     83                     84
                      A                      A                      A
 Frequencies --   3208.4144              3244.1720              3254.7036
 Red. masses --      1.0871                 1.0928                 1.0943
 Frc consts  --      6.5932                 6.7766                 6.8295
 IR Inten    --      5.6611                 0.1621                 2.4137

 - Thermochemistry -
 -------------------
 Temperature   298.150 Kelvin.  Pressure   1.00000 Atm.
 Atom     1 has atomic number  6 and mass  12.00000

 Molecular mass:   266.02577 amu.
 Principal axes and moments of inertia in atomic units:
                           1         2         3
     Eigenvalues --  2754.587196745.533788851.48157
           X            0.99975  -0.02185  -0.00517
           Y            0.02187   0.99975   0.00372
           Z            0.00509  -0.00383   0.99998
 This molecule is an asymmetric top.
 Rotational symmetry number  1.
 Warning -- assumption of classical behavior for rotation
           may cause significant error
 Rotational temperatures (Kelvin)      0.03144     0.01284     0.00979
 Rotational constants (GHZ):           0.65518     0.26755     0.20389
 Zero-point vibrational energy     608131.5 (Joules/Mol)
                                  145.34691 (Kcal/Mol)
 Warning -- explicit consideration of  24 degrees of freedom as
           vibrations may cause significant error
 Vibrational temperatures:     34.02    67.58    76.27   134.43   178.27
          (Kelvin)            220.46   238.72   273.07   308.72   318.18
                              341.78   365.02   393.15   396.87   478.52
                              508.35   560.93   573.65   602.74   650.78
                              687.90   713.23   735.65   813.17   902.23
                              938.61   945.69  1021.65  1061.38  1087.92
                             1094.89  1114.25  1144.98  1186.44  1203.69
                             1234.78  1264.11  1283.89  1287.46  1333.50
                             1358.59  1418.92  1495.16  1501.55  1547.03
                             1566.16  1590.24  1613.84  1619.22  1726.84
                             1739.19  1769.34  1811.05  1871.80  1894.68
                             1903.63  1924.32  1926.45  1975.44  2031.28
                             2095.06  2127.93  2140.38  2156.47  2159.18
                             2178.67  2231.15  2263.49  2273.77  2348.13
                             3853.82  4356.57  4358.56  4384.74  4410.46
                             4440.46  4460.13  4465.15  4482.18  4516.26
                             4551.97  4616.19  4667.64  4682.79

 Zero-point correction=                           0.231625 (Hartree/Particle)
 Thermal correction to Energy=                    0.247860
 Thermal correction to Enthalpy=                  0.248804
 Thermal correction to Gibbs Free Energy=         0.187026
 Sum of electronic and zero-point Energies=          -1698.087680
 Sum of electronic and thermal Energies=             -1698.071445
 Sum of electronic and thermal Enthalpies=           -1698.070501
 Sum of electronic and thermal Free Energies=        -1698.132279

                     E (Thermal)             CV                S
                      KCal/Mol        Cal/Mol-Kelvin    Cal/Mol-Kelvin
 Total                  155.534             62.045            130.024
 Electronic               0.000              0.000              0.000
 Translational            0.889              2.981             42.634
 Rotational               0.889              2.981             33.464
 Vibrational            153.757             56.083             53.926
 Vibration     1          0.593              1.985              6.302
 Vibration     2          0.595              1.979              4.941
 Vibration     3          0.596              1.976              4.702
 Vibration     4          0.602              1.954              3.587
 Vibration     5          0.610              1.929              3.039
 Vibration     6          0.619              1.899              2.632
 Vibration     7          0.624              1.884              2.481
 Vibration     8          0.633              1.854              2.230
 Vibration     9          0.644              1.819              2.004
 Vibration    10          0.648              1.809              1.950
 Vibration    11          0.656              1.783              1.821
 Vibration    12          0.665              1.757              1.705
 Vibration    13          0.676              1.723              1.576
 Vibration    14          0.677              1.718              1.559
 Vibration    15          0.715              1.610              1.247
 Vibration    16          0.730              1.568              1.151
 Vibration    17          0.758              1.492              1.001
 Vibration    18          0.765              1.473              0.967
 Vibration    19          0.782              1.429              0.896
 Vibration    20          0.811              1.356              0.789
 Vibration    21          0.835              1.299              0.715
 Vibration    22          0.851              1.260              0.669
 Vibration    23          0.866              1.225              0.630
 Vibration    24          0.921              1.107              0.514

 Optimization completed.
    -- Stationary point found.
 Normal termination of Gaussian 16 at Fri May 19 16:29:43 2023.
