 Gaussian 16, Revision A.03,
 Gaussian 16:  ES64L-G16RevA.03 25-Dec-2016

 -----------------------------
 # opt freq b3lyp/6-31g(2df,p)
 -----------------------------

 -------------------
 Title Card Required
 -------------------
 Symbolic Z-matrix:
 Charge =  0 Multiplicity = 1

 SCF Done:  E(RB3LYP) =  -711.487944592     A.U. after   16 cycles
 SCF Done:  E(RB3LYP) =  -711.500671771     A.U. after   15 cycles
 SCF Done:  E(RB3LYP) =  -711.512562960     A.U. after   14 cycles
 SCF Done:  E(RB3LYP) =  -711.516855366     A.U. after   14 cycles
 SCF Done:  E(RB3LYP) =  -711.522779316     A.U. after   15 cycles
 SCF Done:  E(RB3LYP) =  -711.529208734     A.U. after   14 cycles
 SCF Done:  E(RB3LYP) =  -711.539621183     A.U. after   15 cycles
 SCF Done:  E(RB3LYP) =  -711.547727907     A.U. after   13 cycles
 SCF Done:  E(RB3LYP) =  -711.554874204     A.U. after   12 cycles
 SCF Done:  E(RB3LYP) =  -711.557249487     A.U. after   12 cycles
 SCF Done:  E(RB3LYP) =  -711.564650725     A.U. after   11 cycles
 SCF Done:  E(RB3LYP) =  -711.564698970     A.U. after   10 cycles
 SCF Done:  E(RB3LYP) =  -711.564738808     A.U. after    9 cycles
 SCF Done:  E(RB3LYP) =  -711.564779639     A.U. after   10 cycles
 SCF Done:  E(RB3LYP) =  -711.564789848     A.U. after   10 cycles
 SCF Done:  E(RB3LYP) =  -711.564805291     A.U. after    9 cycles
 SCF Done:  E(RB3LYP) =  -711.564805973     A.U. after    7 cycles
 SCF Done:  E(RB3LYP) =  -711.564806570     A.U. after    7 cycles
 SCF Done:  E(RB3LYP) =  -711.564806621     A.U. after    6 cycles
 Optimization completed.
    -- Stationary point found.
 Normal termination of Gaussian 16 at Thu May 18 20:33:23 2023.

 ----------------------------------------------------------------------
 #N Geom=AllCheck Guess=TCheck SCRF=Check GenChk RB3LYP/6-31G(2df,p) Fr
 eq
 ----------------------------------------------------------------------

 Structure from the checkpoint file:  "CCCNC1dCCdCCdCCdC1NCCNC.chk"
 -------------------
 Title Card Required
 -------------------
 Charge =  0 Multiplicity = 1

                         Standard orientation:
 ---------------------------------------------------------------------
 Center     Atomic      Atomic             Coordinates (Angstroms)
 Number     Number       Type             X           Y           Z
 ---------------------------------------------------------------------
      1          6           0       -5.157595    1.731424    0.591404
      2          6           0       -4.008007    1.277243   -0.310465
      3          6           0       -2.883213    0.595912    0.469471
      4          7           0       -1.824390    0.168038   -0.416358
      5          6           0       -0.693108   -0.494537    0.020012
      6          6           0       -0.505325   -0.898124    1.296425
      7          6           0        0.589142   -1.700921    1.831489
      8          6           0        1.084401   -2.863250    1.368004
      9          6           0        0.666132   -3.611427    0.184676
     10          6           0        0.492490   -3.156456   -1.066300
     11          6           0        0.773348   -1.805978   -1.556468
     12          6           0        0.314242   -0.639067   -1.082770
     13          7           0        0.591150    0.588991   -1.729685
     14          6           0        1.100576    1.701295   -0.920094
     15          6           0        2.514344    1.485698   -0.366620
     16          7           0        2.930486    2.635154    0.426737
     17          6           0        4.290736    2.520197    0.937021
     18          1           0       -5.945838    2.218374    0.010058
     19          1           0       -4.812390    2.444704    1.347716
     20          1           0       -5.607658    0.882435    1.117143
     21          1           0       -3.598324    2.143085   -0.848341
     22          1           0       -4.378633    0.583329   -1.074182
     23          1           0       -3.278829   -0.282947    0.996709
     24          1           0       -2.506001    1.279317    1.251923
     25          1           0       -1.682733    0.716768   -1.251973
     26          1           0       -1.245931   -0.595676    2.033406
     27          1           0        0.967532   -1.367027    2.798913
     28          1           0        1.827866   -3.365452    1.986651
     29          1           0        0.537126   -4.682282    0.344395
     30          1           0        0.239926   -3.888993   -1.833378
     31          1           0        1.423138   -1.761242   -2.433928
     32          1           0        1.168538    0.442143   -2.549880
     33          1           0        0.406317    1.859797   -0.087476
     34          1           0        1.083309    2.609747   -1.530297
     35          1           0        3.217832    1.382011   -1.205122
     36          1           0        2.545991    0.530875    0.188602
     37          1           0        2.291811    2.742128    1.209206
     38          1           0        4.996653    2.532311    0.098543
     39          1           0        4.482063    1.599588    1.517086
     40          1           0        4.518540    3.379671    1.574665
 ---------------------------------------------------------------------

 SCF Done:  E(RB3LYP) =  -711.564806621     A.U. after    1 cycles

 The electronic state is 1-A.
 Alpha  occ. eigenvalues --  -14.33432 -14.33060 -14.31074 -10.21323 -10.21280
 Alpha  occ. eigenvalues --  -10.21191 -10.20910 -10.19867 -10.19684 -10.18816
 Alpha  occ. eigenvalues --  -10.17954 -10.17236 -10.17222 -10.16936 -10.16690
 Alpha  occ. eigenvalues --  -10.16547 -10.15600  -0.94118  -0.91142  -0.89323
 Alpha  occ. eigenvalues --   -0.80869  -0.78464  -0.76349  -0.74745  -0.72045
 Alpha  occ. eigenvalues --   -0.68648  -0.67283  -0.64405  -0.62701  -0.60756
 Alpha  occ. eigenvalues --   -0.59870  -0.56514  -0.54650  -0.50345  -0.49764
 Alpha  occ. eigenvalues --   -0.48580  -0.47655  -0.46907  -0.46140  -0.45495
 Alpha  occ. eigenvalues --   -0.43906  -0.43705  -0.42421  -0.41496  -0.41167
 Alpha  occ. eigenvalues --   -0.40413  -0.39816  -0.39447  -0.37626  -0.36962
 Alpha  occ. eigenvalues --   -0.36374  -0.35486  -0.34767  -0.34507  -0.34058
 Alpha  occ. eigenvalues --   -0.33836  -0.32675  -0.31473  -0.28862  -0.27788
 Alpha  occ. eigenvalues --   -0.23820  -0.22128  -0.19575  -0.17280
 Alpha virt. eigenvalues --   -0.02262   0.04603   0.05303   0.08312   0.08450
 Alpha virt. eigenvalues --    0.08963   0.10463   0.10785   0.11292   0.12929
 Alpha virt. eigenvalues --    0.13159   0.13693   0.14559   0.14971   0.15521

 Mulliken charges:
               1
     1  C   -0.380444
     2  C   -0.200259
     3  C   -0.101625
     4  N   -0.341389
     5  C    0.259248
     6  C   -0.246754
     7  C   -0.105383
     8  C   -0.109101
     9  C   -0.088698
    10  C   -0.123310
    11  C   -0.229628
    12  C    0.259906
    13  N   -0.357702
    14  C   -0.192913
    15  C   -0.125668
    16  N   -0.282465
    17  C   -0.308492
    18  H    0.117128
    19  H    0.117937
    20  H    0.120358
    21  H    0.098242
    22  H    0.111032
    23  H    0.113240
    24  H    0.090012
    25  H    0.242697
    26  H    0.076760
    27  H    0.075584
    28  H    0.080789
    29  H    0.085062
    30  H    0.081577
    31  H    0.068947
    32  H    0.227807
    33  H    0.115961
    34  H    0.109814
    35  H    0.091349
    36  H    0.102584
    37  H    0.215810
    38  H    0.120284
    39  H    0.096382
    40  H    0.115322
 Sum of Mulliken charges =  -0.00000

 Dipole moment (field-independent basis, Debye):
    X=             -0.5030    Y=              1.6446    Z=             -0.3114  Tot=              1.7477
 Quadrupole moment (field-independent basis, Debye-Ang):
   XX=            -98.9727   YY=           -107.5723   ZZ=            -98.9204
   XY=             -3.1344   XZ=             -0.6711   YZ=              1.9256

  Exact polarizability: 174.088 -21.860 199.170   4.131  -2.985 165.001
 Approx polarizability: 225.841 -42.081 303.058  10.193 -10.845 283.128

                      1                      2                      3
                      A                      A                      A
 Frequencies --     23.4681                32.9810                45.8279
 Red. masses --      3.9129                 3.5419                 3.9114
 Frc consts  --      0.0013                 0.0023                 0.0048
 IR Inten    --      0.1068                 0.7572                 0.3726

                      4                      5                      6
                      A                      A                      A
 Frequencies --     69.7788                77.0236                89.8028
 Red. masses --      1.7663                 1.7103                 3.5779
 Frc consts  --      0.0051                 0.0060                 0.0170
 IR Inten    --      1.4025                 0.7345                 0.6301

                      7                      8                      9
                      A                      A                      A
 Frequencies --     95.2666               115.3662               140.7849
 Red. masses --      3.0597                 2.7814                 3.2137
 Frc consts  --      0.0164                 0.0218                 0.0375
 IR Inten    --      1.1882                 1.1254                 0.5068

                     10                     11                     12
                      A                      A                      A
 Frequencies --    154.7540               196.9791               201.6815
 Red. masses --      2.7421                 3.0347                 3.3670
 Frc consts  --      0.0387                 0.0694                 0.0807
 IR Inten    --      1.0056                 1.8783                 1.7717

                     13                     14                     15
                      A                      A                      A
 Frequencies --    227.0179               232.9990               240.8158
 Red. masses --      3.2165                 1.7056                 1.2640
 Frc consts  --      0.0977                 0.0546                 0.0432
 IR Inten    --      3.9716                 0.6883                 0.4453

                     16                     17                     18
                      A                      A                      A
 Frequencies --    256.5048               273.2569               289.7534
 Red. masses --      1.5437                 3.1187                 4.2346
 Frc consts  --      0.0598                 0.1372                 0.2095
 IR Inten    --      0.4749                 1.5751                 0.6626

                     19                     20                     21
                      A                      A                      A
 Frequencies --    342.8528               365.2578               381.9634
 Red. masses --      2.9220                 3.0559                 4.2925
 Frc consts  --      0.2024                 0.2402                 0.3690
 IR Inten    --     14.0346                 8.9106                 0.8933

                     22                     23                     24
                      A                      A                      A
 Frequencies --    416.1696               426.7583               499.9537
 Red. masses --      3.1587                 2.3788                 3.7016
 Frc consts  --      0.3223                 0.2553                 0.5451
 IR Inten    --      5.2744                12.3535                22.8602

                     25                     26                     27
                      A                      A                      A
 Frequencies --    519.4908               537.2487               587.4428
 Red. masses --      1.5453                 2.8282                 2.9384
 Frc consts  --      0.2457                 0.4810                 0.5974
 IR Inten    --     71.7165                20.1749                 2.0098

                     28                     29                     30
                      A                      A                      A
 Frequencies --    624.4621               664.0832               718.6724
 Red. masses --      2.6703                 2.3858                 2.2756
 Frc consts  --      0.6135                 0.6199                 0.6925
 IR Inten    --     21.2319                14.1716                20.1621

                     31                     32                     33
                      A                      A                      A
 Frequencies --    726.7580               753.0363               763.0465
 Red. masses --      1.9704                 2.2588                 1.1233
 Frc consts  --      0.6132                 0.7547                 0.3854
 IR Inten    --     43.5315                14.6280                 4.9610

                     34                     35                     36
                      A                      A                      A
 Frequencies --    767.1550               784.5450               807.5942
 Red. masses --      1.7986                 1.2477                 1.9168
 Frc consts  --      0.6237                 0.4525                 0.7366
 IR Inten    --     47.1859                62.0320                 8.8815

                     37                     38                     39
                      A                      A                      A
 Frequencies --    812.2876               832.5212               861.3739
 Red. masses --      1.7277                 1.5359                 1.7113
 Frc consts  --      0.6716                 0.6272                 0.7481
 IR Inten    --     20.7458                13.6388                18.1420

                     40                     41                     42
                      A                      A                      A
 Frequencies --    898.8887               906.6583               916.2042
 Red. masses --      3.1990                 1.2156                 1.6492
 Frc consts  --      1.5229                 0.5887                 0.8157
 IR Inten    --      8.6185                 2.6738                 1.6561

                     43                     44                     45
                      A                      A                      A
 Frequencies --    941.8554               982.0939               982.6514
 Red. masses --      2.8497                 1.2752                 1.4242
 Frc consts  --      1.4894                 0.7247                 0.8102
 IR Inten    --      0.5500                 0.8248                 4.5721

                     46                     47                     48
                      A                      A                      A
 Frequencies --    987.6245              1013.6458              1032.3172
 Red. masses --      1.9459                 2.4786                 2.8115
 Frc consts  --      1.1183                 1.5005                 1.7653
 IR Inten    --      2.5521                 3.0470                19.6741

                     49                     50                     51
                      A                      A                      A
 Frequencies --   1044.6068              1050.4551              1083.9485
 Red. masses --      3.1460                 2.5387                 1.6963
 Frc consts  --      2.0226                 1.6505                 1.1743
 IR Inten    --      1.0336                 2.4981                 0.9527

                     52                     53                     54
                      A                      A                      A
 Frequencies --   1093.5107              1108.1978              1142.7009
 Red. masses --      2.2929                 1.7211                 2.3878
 Frc consts  --      1.6154                 1.2454                 1.8370
 IR Inten    --      8.7460                 2.3661                17.4205

                     55                     56                     57
                      A                      A                      A
 Frequencies --   1157.3186              1173.4635              1178.2934
 Red. masses --      2.5285                 2.4010                 1.6889
 Frc consts  --      1.9953                 1.9479                 1.3815
 IR Inten    --      4.8200               103.0916                22.0815

                     58                     59                     60
                      A                      A                      A
 Frequencies --   1186.9286              1220.2782              1243.9724
 Red. masses --      2.0762                 1.8589                 1.1998
 Frc consts  --      1.7233                 1.6309                 1.0939
 IR Inten    --     10.4077                28.2598                20.3152

                     61                     62                     63
                      A                      A                      A
 Frequencies --   1257.8454              1267.4558              1272.9863
 Red. masses --      1.2641                 1.2350                 1.3882
 Frc consts  --      1.1784                 1.1689                 1.3254
 IR Inten    --     32.3723                 9.2088                 6.1661

                     64                     65                     66
                      A                      A                      A
 Frequencies --   1287.5473              1317.9500              1318.9127
 Red. masses --      1.5263                 1.1312                 1.1435
 Frc consts  --      1.4908                 1.1577                 1.1719
 IR Inten    --     82.1998                10.5342                 3.2092

                     67                     68                     69
                      A                      A                      A
 Frequencies --   1331.5466              1339.2330              1345.8150
 Red. masses --      1.3835                 1.3256                 1.3311
 Frc consts  --      1.4452                 1.4007                 1.4205
 IR Inten    --      1.3625                19.1246                11.6306

                     70                     71                     72
                      A                      A                      A
 Frequencies --   1395.5896              1410.0438              1411.6909
 Red. masses --      1.5415                 1.3740                 1.4224
 Frc consts  --      1.7689                 1.6095                 1.6701
 IR Inten    --     13.3101                 2.4418                 3.7326

                     73                     74                     75
                      A                      A                      A
 Frequencies --   1415.5286              1417.9164              1459.0578
 Red. masses --      1.4109                 1.4138                 1.5335
 Frc consts  --      1.6657                 1.6747                 1.9234
 IR Inten    --      5.0536                 3.9535                 6.5153

                     76                     77                     78
                      A                      A                      A
 Frequencies --   1459.6462              1482.3794              1484.5856
 Red. masses --      1.2336                 1.1504                 1.1388
 Frc consts  --      1.5485                 1.4894                 1.4788
 IR Inten    --      1.7417                 2.3669                14.6193

                     79                     80                     81
                      A                      A                      A
 Frequencies --   1490.4442              1492.4696              1499.2921
 Red. masses --      1.1235                 1.0562                 1.2065
 Frc consts  --      1.4705                 1.3862                 1.5979
 IR Inten    --      9.3497                 7.7286                23.8899

                     82                     83                     84
                      A                      A                      A
 Frequencies --   1500.0963              1506.0300              1514.3817
 Red. masses --      1.0658                 1.0856                 1.0801
 Frc consts  --      1.4130                 1.4508                 1.4594
 IR Inten    --      1.4143                12.9818                16.7118

                     85                     86                     87
                      A                      A                      A
 Frequencies --   1518.4105              1522.0613              1528.5195
 Red. masses --      1.5267                 1.0812                 1.1321
 Frc consts  --      2.0739                 1.4757                 1.5584
 IR Inten    --    217.7014                 5.4245                 0.9769

                     88                     89                     90
                      A                      A                      A
 Frequencies --   1674.6917              1687.0612              1691.0313
 Red. masses --      7.7970                 7.3667                 5.6513
 Frc consts  --     12.8839                12.3533                 9.5214
 IR Inten    --     25.4028                54.3700                55.0475

                     91                     92                     93
                      A                      A                      A
 Frequencies --   1725.6059              2933.8036              2943.3779
 Red. masses --      7.9310                 1.0724                 1.0618
 Frc consts  --     13.9143                 5.4384                 5.4196
 IR Inten    --     88.9257                48.0232                39.9222

                     94                     95                     96
                      A                      A                      A
 Frequencies --   2947.6260              3011.7873              3016.8242
 Red. masses --      1.0656                 1.0733                 1.0897
 Frc consts  --      5.4549                 5.7359                 5.8433
 IR Inten    --     74.3465                 6.2730                22.2908

                     97                     98                     99
                      A                      A                      A
 Frequencies --   3023.2615              3033.8189              3045.0146
 Red. masses --      1.0738                 1.0363                 1.0586
 Frc consts  --      5.7827                 5.6199                 5.7833
 IR Inten    --     30.3386                35.3246                35.2778

                    100                    101                    102
                      A                      A                      A
 Frequencies --   3052.7526              3060.4374              3081.6170
 Red. masses --      1.0748                 1.0993                 1.0846
 Frc consts  --      5.9013                 6.0664                 6.0686
 IR Inten    --     45.2792                15.9167                35.7899

                    103                    104                    105
                      A                      A                      A
 Frequencies --   3091.1299              3097.4630              3099.7846
 Red. masses --      1.1056                 1.0812                 1.1010
 Frc consts  --      6.2243                 6.1116                 6.2331
 IR Inten    --     32.9799                13.3565                30.6052

                    106                    107                    108
                      A                      A                      A
 Frequencies --   3100.4717              3104.6843              3108.5482
 Red. masses --      1.1022                 1.0814                 1.1009
 Frc consts  --      6.2426                 6.1413                 6.2676
 IR Inten    --     44.9105                 2.4520                32.1292

                    109                    110                    111
                      A                      A                      A
 Frequencies --   3122.7949              3132.2806              3143.0479
 Red. masses --      1.0905                 1.0921                 1.0858
 Frc consts  --      6.2655                 6.3132                 6.3197
 IR Inten    --     59.2295                64.8429                21.4008

                    112                    113                    114
                      A                      A                      A
 Frequencies --   3504.8658              3540.0194              3597.7181
 Red. masses --      1.0734                 1.0739                 1.0755
 Frc consts  --      7.7685                 7.9291                 8.2022
 IR Inten    --      0.3551                 1.9231                34.5367

 - Thermochemistry -
 -------------------
 Temperature   298.150 Kelvin.  Pressure   1.00000 Atm.
 Atom     1 has atomic number  6 and mass  12.00000

 Molecular mass:   233.18920 amu.
 Principal axes and moments of inertia in atomic units:
                           1         2         3
     Eigenvalues --  4097.882225889.916688069.89463
           X            0.99995  -0.01038  -0.00023
           Y            0.01038   0.99991   0.00813
           Z            0.00014  -0.00814   0.99997
 This molecule is an asymmetric top.
 Rotational symmetry number  1.
 Warning -- assumption of classical behavior for rotation
           may cause significant error
 Rotational temperatures (Kelvin)      0.02114     0.01471     0.01073
 Rotational constants (GHZ):           0.44041     0.30641     0.22364
 Zero-point vibrational energy     927831.4 (Joules/Mol)
                                  221.75704 (Kcal/Mol)
 Warning -- explicit consideration of  27 degrees of freedom as
           vibrations may cause significant error
 Vibrational temperatures:     33.77    47.45    65.94   100.40   110.82
          (Kelvin)            129.21   137.07   165.99   202.56   222.66
                              283.41   290.17   326.63   335.23   346.48
                              369.05   393.16   416.89   493.29   525.52
                              549.56   598.78   614.01   719.32   747.43
                              772.98   845.20   898.46   955.47  1034.01
                             1045.64  1083.45  1097.85  1103.76  1128.79
                             1161.95  1168.70  1197.81  1239.32  1293.30
                             1304.48  1318.21  1355.12  1413.01  1413.82
                             1420.97  1458.41  1485.27  1502.96  1511.37
                             1559.56  1573.32  1594.45  1644.09  1665.12
                             1688.35  1695.30  1707.73  1755.71  1789.80
                             1809.76  1823.59  1831.54  1852.49  1896.24
                             1897.62  1915.80  1926.86  1936.33  2007.94
                             2028.74  2031.11  2036.63  2040.07  2099.26
                             2100.11  2132.81  2135.99  2144.42  2147.33
                             2157.15  2158.30  2166.84  2178.86  2184.65
                             2189.91  2199.20  2409.51  2427.30  2433.02
                             2482.76  4221.09  4234.86  4240.98  4333.29
                             4340.54  4349.80  4364.99  4381.10  4392.23
                             4403.29  4433.76  4447.45  4456.56  4459.90
                             4460.89  4466.95  4472.51  4493.01  4506.65
                             4522.14  5042.72  5093.30  5176.31

 Zero-point correction=                           0.353392 (Hartree/Particle)
 Thermal correction to Energy=                    0.372321
 Thermal correction to Enthalpy=                  0.373265
 Thermal correction to Gibbs Free Energy=         0.304896
 Sum of electronic and zero-point Energies=           -711.211414
 Sum of electronic and thermal Energies=              -711.192486
 Sum of electronic and thermal Enthalpies=            -711.191541
 Sum of electronic and thermal Free Energies=         -711.259910

                     E (Thermal)             CV                S
                      KCal/Mol        Cal/Mol-Kelvin    Cal/Mol-Kelvin
 Total                  233.635             70.382            143.895
 Electronic               0.000              0.000              0.000
 Translational            0.889              2.981             42.242
 Rotational               0.889              2.981             33.632
 Vibrational            231.858             64.421             68.021
 Vibration     1          0.593              1.985              6.317
 Vibration     2          0.594              1.983              5.642
 Vibration     3          0.595              1.979              4.990
 Vibration     4          0.598              1.969              4.160
 Vibration     5          0.599              1.964              3.965
 Vibration     6          0.602              1.956              3.664
 Vibration     7          0.603              1.953              3.549
 Vibration     8          0.608              1.937              3.177
 Vibration     9          0.615              1.913              2.793
 Vibration    10          0.620              1.897              2.613
 Vibration    11          0.636              1.844              2.161
 Vibration    12          0.639              1.838              2.118
 Vibration    13          0.651              1.800              1.902
 Vibration    14          0.654              1.790              1.856
 Vibration    15          0.658              1.778              1.797
 Vibration    16          0.666              1.752              1.685
 Vibration    17          0.676              1.723              1.576
 Vibration    18          0.686              1.693              1.475
 Vibration    19          0.722              1.590              1.199
 Vibration    20          0.738              1.544              1.100
 Vibration    21          0.751              1.509              1.031
 Vibration    22          0.779              1.435              0.905
 Vibration    23          0.788              1.412              0.869
 Vibration    24          0.855              1.250              0.658
 Vibration    25          0.874              1.207              0.611
 Vibration    26          0.892              1.168              0.571
 Vibration    27          0.945              1.059              0.472

                           ! Non-Optimized Parameters !
 Normal termination of Gaussian 16 at Fri May 19 00:46:31 2023.
