 Gaussian 16, Revision A.03,
 Gaussian 16:  ES64L-G16RevA.03 25-Dec-2016

 -----------------------------
 # opt freq b3lyp/6-31g(2df,p)
 -----------------------------

 -------------------
 Title Card Required
 -------------------
 Symbolic Z-matrix:
 Charge =  0 Multiplicity = 2

 SCF Done:  E(UB3LYP) =  -557.473087577     A.U. after   23 cycles
 SCF Done:  E(UB3LYP) =  -557.485379162     A.U. after   20 cycles
 SCF Done:  E(UB3LYP) =  -557.489612933     A.U. after   21 cycles
 SCF Done:  E(UB3LYP) =  -557.490859084     A.U. after   22 cycles
 SCF Done:  E(UB3LYP) =  -557.491919430     A.U. after   25 cycles
 SCF Done:  E(UB3LYP) =  -557.492994657     A.U. after   26 cycles
 SCF Done:  E(UB3LYP) =  -557.494442502     A.U. after   23 cycles
 SCF Done:  E(UB3LYP) =  -557.496072772     A.U. after   21 cycles
 SCF Done:  E(UB3LYP) =  -557.497424723     A.U. after   20 cycles
 SCF Done:  E(UB3LYP) =  -557.499206323     A.U. after   20 cycles
 SCF Done:  E(UB3LYP) =  -557.501324945     A.U. after   21 cycles
 SCF Done:  E(UB3LYP) =  -557.501870101     A.U. after   18 cycles
 SCF Done:  E(UB3LYP) =  -557.501896554     A.U. after   15 cycles
 SCF Done:  E(UB3LYP) =  -557.501907158     A.U. after   15 cycles
 SCF Done:  E(UB3LYP) =  -557.501908405     A.U. after   13 cycles
 SCF Done:  E(UB3LYP) =  -557.501908965     A.U. after   11 cycles
 SCF Done:  E(UB3LYP) =  -557.501909316     A.U. after   12 cycles
 SCF Done:  E(UB3LYP) =  -557.501909472     A.U. after   11 cycles
 SCF Done:  E(UB3LYP) =  -557.501909575     A.U. after    7 cycles
 Optimization completed.
    -- Stationary point found.
 Normal termination of Gaussian 16 at Sat May 20 11:40:25 2023.

 ----------------------------------------------------------------------
 #N Geom=AllCheck Guess=TCheck SCRF=Check GenChk UB3LYP/6-31G(2df,p) Fr
 eq
 ----------------------------------------------------------------------

 Structure from the checkpoint file:  "CCCONdCC1dCCdCCdC[CH]1.chk"
 -------------------
 Title Card Required
 -------------------
 Charge =  0 Multiplicity = 2

                         Standard orientation:
 ---------------------------------------------------------------------
 Center     Atomic      Atomic             Coordinates (Angstroms)
 Number     Number       Type             X           Y           Z
 ---------------------------------------------------------------------
      1          6           0        5.840893    0.519665   -0.000125
      2          6           0        4.621296   -0.405856   -0.000142
      3          6           0        3.313801    0.372349    0.000112
      4          8           0        2.248207   -0.573950    0.000050
      5          7           0        1.029118    0.090815    0.000204
      6          6           0        0.049966   -0.762236    0.000123
      7          6           0       -1.324784   -0.356541    0.000119
      8          6           0       -1.626147    1.060119    0.000152
      9          6           0       -2.823552    1.695963   -0.000262
     10          6           0       -4.158601    1.141016   -0.000091
     11          6           0       -4.516519   -0.169566    0.000074
     12          6           0       -3.671709   -1.326097   -0.000242
     13          6           0       -2.296295   -1.383872   -0.000006
     14          1           0        6.770299   -0.056808   -0.000258
     15          1           0        5.850975    1.166527    0.883933
     16          1           0        5.850846    1.166732   -0.884034
     17          1           0        4.642501   -1.060857    0.878513
     18          1           0        4.642314   -1.060583   -0.879005
     19          1           0        3.234618    1.015490   -0.886884
     20          1           0        3.234788    1.015188    0.887342
     21          1           0        0.275616   -1.830342    0.000070
     22          1           0       -0.741463    1.689655    0.000360
     23          1           0       -2.783835    2.782345   -0.000402
     24          1           0       -4.963629    1.870667    0.000259
     25          1           0       -5.583596   -0.380152    0.000575
     26          1           0       -4.188731   -2.280895   -0.000551
     27          1           0       -1.880284   -2.390739   -0.000017
 ---------------------------------------------------------------------

 SCF Done:  E(UB3LYP) =  -557.501909575     A.U. after    1 cycles

 The electronic state is 2-A.
 Alpha  occ. eigenvalues --  -19.17040 -14.36193 -10.22070 -10.20394 -10.20367
 Alpha  occ. eigenvalues --  -10.20054 -10.20028 -10.19622 -10.19569 -10.19484
 Alpha  occ. eigenvalues --  -10.19307 -10.18049 -10.17640  -1.07732  -0.87343
 Alpha  occ. eigenvalues --   -0.83894  -0.78741  -0.77735  -0.76367  -0.68951
 Alpha  occ. eigenvalues --   -0.66062  -0.64795  -0.58676  -0.58026  -0.53836
 Alpha  occ. eigenvalues --   -0.52288  -0.50564  -0.48600  -0.48014  -0.45647
 Alpha  occ. eigenvalues --   -0.44364  -0.42638  -0.42297  -0.39836  -0.39359
 Alpha  occ. eigenvalues --   -0.38480  -0.38030  -0.36436  -0.35986  -0.35207
 Alpha  occ. eigenvalues --   -0.33727  -0.33458  -0.33165  -0.30373  -0.29400
 Alpha  occ. eigenvalues --   -0.26731  -0.23482  -0.14840
 Alpha virt. eigenvalues --   -0.06496   0.01099   0.07709   0.09552   0.10132
 Alpha virt. eigenvalues --    0.11027   0.11947   0.13348   0.13963   0.14296
 Alpha virt. eigenvalues --    0.15312   0.15474   0.17410   0.17694   0.18930

  Beta  occ. eigenvalues --  -19.16844 -14.35583 -10.22077 -10.20606 -10.20582
  Beta  occ. eigenvalues --  -10.20085 -10.19576 -10.19521 -10.19368 -10.19297
  Beta  occ. eigenvalues --  -10.18841 -10.18050 -10.17640  -1.07147  -0.86770
  Beta  occ. eigenvalues --   -0.83333  -0.78332  -0.77212  -0.76062  -0.68406
  Beta  occ. eigenvalues --   -0.65693  -0.64616  -0.58638  -0.57723  -0.53545
  Beta  occ. eigenvalues --   -0.52102  -0.50293  -0.48382  -0.47715  -0.45483
  Beta  occ. eigenvalues --   -0.44228  -0.42604  -0.41618  -0.39695  -0.39133
  Beta  occ. eigenvalues --   -0.37865  -0.37240  -0.36349  -0.35047  -0.34869
  Beta  occ. eigenvalues --   -0.33650  -0.33396  -0.32768  -0.28737  -0.27705
  Beta  occ. eigenvalues --   -0.26155  -0.22141
  Beta virt. eigenvalues --   -0.07441  -0.06421   0.02917   0.07812   0.09561
  Beta virt. eigenvalues --    0.10254   0.12108   0.12775   0.13987   0.14240
  Beta virt. eigenvalues --    0.15323   0.15418   0.15529   0.17589   0.17817

 Mulliken charges and spin densities:
               1          2
     1  C   -0.381872  -0.000231
     2  C   -0.192642  -0.000228
     3  C   -0.006848  -0.004789
     4  O   -0.252650   0.059244
     5  N   -0.146690   0.292433
     6  C    0.034274  -0.139665
     7  C    0.100582   0.346213
     8  C   -0.117981  -0.003434
     9  C   -0.091166   0.139040
    10  C   -0.108326   0.179203
    11  C   -0.075701  -0.040060
    12  C   -0.128887   0.331916
    13  C   -0.088206  -0.147804
    14  H    0.117528  -0.000048
    15  H    0.118147   0.000015
    16  H    0.118148   0.000015
    17  H    0.107648  -0.000052
    18  H    0.107649  -0.000052
    19  H    0.097911   0.004050
    20  H    0.097909   0.004050
    21  H    0.090342   0.003752
    22  H    0.120313  -0.001014
    23  H    0.097039  -0.006662
    24  H    0.096907  -0.008227
    25  H    0.099020   0.001257
    26  H    0.093168  -0.014653
    27  H    0.094386   0.005729
 Sum of Mulliken charges =  -0.00000   1.00000

 Dipole moment (field-independent basis, Debye):
    X=             -0.8254    Y=             -0.0505    Z=              0.0002  Tot=              0.8270
 Quadrupole moment (field-independent basis, Debye-Ang):
   XX=            -63.1625   YY=            -72.0499   ZZ=            -80.0045
   XY=              1.0102   XZ=             -0.0017   YZ=              0.0003

  Exact polarizability: 262.565  -0.846 132.747   0.005   0.000  68.234
 Approx polarizability: 364.648   1.087 222.558   0.018  -0.003 108.886

                      1                      2                      3
                      A                      A                      A
 Frequencies --     35.3031                42.4268                61.5915
 Red. masses --      4.1267                 1.6348                 4.1467
 Frc consts  --      0.0030                 0.0017                 0.0093
 IR Inten    --      0.6090                 0.1407                 0.3908

                      4                      5                      6
                      A                      A                      A
 Frequencies --     77.0919               132.2271               171.2978
 Red. masses --      3.7149                 2.7858                 3.9506
 Frc consts  --      0.0130                 0.0287                 0.0683
 IR Inten    --      0.0997                 1.6170                 2.5293

                      7                      8                      9
                      A                      A                      A
 Frequencies --    196.5242               209.3977               235.9112
 Red. masses --      3.7898                 4.0277                 1.1741
 Frc consts  --      0.0862                 0.1041                 0.0385
 IR Inten    --      0.6895                 4.9431                 0.0741

                     10                     11                     12
                      A                      A                      A
 Frequencies --    242.7139               298.3811               334.7814
 Red. masses --      4.8073                 3.2853                 3.7295
 Frc consts  --      0.1669                 0.1723                 0.2463
 IR Inten    --      0.1604                 0.2889                 1.1216

                     13                     14                     15
                      A                      A                      A
 Frequencies --    389.4496               406.9472               454.6165
 Red. masses --      3.6298                 5.6988                 6.5557
 Frc consts  --      0.3244                 0.5560                 0.7983
 IR Inten    --      1.2655                 0.1101                 1.1855

                     16                     17                     18
                      A                      A                      A
 Frequencies --    524.2014               546.8294               561.6497
 Red. masses --      4.8453                 1.9883                 7.0200
 Frc consts  --      0.7845                 0.3503                 1.3047
 IR Inten    --     15.9226                26.1619                28.3306

                     19                     20                     21
                      A                      A                      A
 Frequencies --    594.8226               749.2131               763.4978
 Red. masses --      2.6640                 1.5622                 1.0775
 Frc consts  --      0.5553                 0.5166                 0.3701
 IR Inten    --      5.5904                22.4438                 2.2362

                     22                     23                     24
                      A                      A                      A
 Frequencies --    793.8453               806.2849               856.5272
 Red. masses --      4.6791                 1.2972                 5.8985
 Frc consts  --      1.7373                 0.4969                 2.5496
 IR Inten    --     21.1031                 0.2893                 1.2654

                     25                     26                     27
                      A                      A                      A
 Frequencies --    873.8962               896.9870               905.6064
 Red. masses --      1.4527                 1.1258                 5.4629
 Frc consts  --      0.6537                 0.5337                 2.6397
 IR Inten    --      0.9378                 1.0877                 1.7093

                     28                     29                     30
                      A                      A                      A
 Frequencies --    916.4600               939.9377               953.9543
 Red. masses --      1.7413                 3.0371                 1.3792
 Frc consts  --      0.8617                 1.5809                 0.7395
 IR Inten    --      1.6182                27.5857                 6.4684

                     31                     32                     33
                      A                      A                      A
 Frequencies --    975.6475               995.5395              1001.8559
 Red. masses --      4.0325                 1.3711                 1.3088
 Frc consts  --      2.2616                 0.8006                 0.7740
 IR Inten    --     48.6890                 1.3989                 0.3443

                     34                     35                     36
                      A                      A                      A
 Frequencies --   1020.6505              1033.7032              1049.9493
 Red. masses --      3.1787                 1.2926                 2.9907
 Frc consts  --      1.9510                 0.8138                 1.9425
 IR Inten    --     46.8455                 0.0009                59.4277

                     37                     38                     39
                      A                      A                      A
 Frequencies --   1084.5591              1094.0051              1153.7361
 Red. masses --      4.3533                 5.4963                 2.5929
 Frc consts  --      3.0170                 3.8758                 2.0335
 IR Inten    --    203.7563               332.7891                 5.0380

                     40                     41                     42
                      A                      A                      A
 Frequencies --   1190.9087              1229.1034              1245.2448
 Red. masses --      1.5764                 1.7328                 1.3649
 Frc consts  --      1.3173                 1.5423                 1.2470
 IR Inten    --      1.0549                12.3278                 0.0592

                     43                     44                     45
                      A                      A                      A
 Frequencies --   1260.5323              1267.9774              1298.6165
 Red. masses --      1.2212                 1.3745                 1.1302
 Frc consts  --      1.1433                 1.3020                 1.1229
 IR Inten    --      0.3865                 0.0513                 3.0860

                     46                     47                     48
                      A                      A                      A
 Frequencies --   1308.9567              1328.9067              1380.4774
 Red. masses --      1.0954                 1.3810                 2.0324
 Frc consts  --      1.1058                 1.4369                 2.2821
 IR Inten    --      0.0002                28.7876                12.9268

                     49                     50                     51
                      A                      A                      A
 Frequencies --   1390.2466              1412.0174              1423.1293
 Red. masses --      1.4127                 1.3084                 1.4469
 Frc consts  --      1.6087                 1.5370                 1.7266
 IR Inten    --      6.7131                 4.4229                27.6199

                     52                     53                     54
                      A                      A                      A
 Frequencies --   1455.9668              1479.6078              1492.9586
 Red. masses --      1.6850                 1.6911                 1.0522
 Frc consts  --      2.1045                 2.1812                 1.3817
 IR Inten    --      6.1145                 1.1516                 2.7972

                     55                     56                     57
                      A                      A                      A
 Frequencies --   1500.7231              1507.7712              1510.2974
 Red. masses --      1.0394                 1.0819                 2.0359
 Frc consts  --      1.3792                 1.4491                 2.7361
 IR Inten    --      5.1830                 2.4010                 0.1088

                     58                     59                     60
                      A                      A                      A
 Frequencies --   1524.7799              1551.9402              1626.4535
 Red. masses --      1.1003                 3.9660                 7.2954
 Frc consts  --      1.5072                 5.6279                11.3706
 IR Inten    --     25.6250                 3.3987                61.2955

                     61                     62                     63
                      A                      A                      A
 Frequencies --   1662.6042              3002.2609              3032.6022
 Red. masses --      4.4730                 1.0549                 1.0391
 Frc consts  --      7.2849                 5.6024                 5.6304
 IR Inten    --      0.3168                57.9582                23.5939

                     64                     65                     66
                      A                      A                      A
 Frequencies --   3037.6427              3037.6726              3072.7775
 Red. masses --      1.1057                 1.0558                 1.1036
 Frc consts  --      6.0113                 5.7399                 6.1395
 IR Inten    --     20.6197                40.6561                11.8060

                     67                     68                     69
                      A                      A                      A
 Frequencies --   3101.4728              3103.3106              3109.0350
 Red. masses --      1.1030                 1.0873                 1.1006
 Frc consts  --      6.2512                 6.1697                 6.2679
 IR Inten    --     59.9464                10.9766                34.0524

                     70                     71                     72
                      A                      A                      A
 Frequencies --   3131.0453              3142.9243              3152.4868
 Red. masses --      1.0846                 1.0816                 1.0859
 Frc consts  --      6.2648                 6.2947                 6.3581
 IR Inten    --      9.4317                 4.2853                10.8689

                     73                     74                     75
                      A                      A                      A
 Frequencies --   3169.4627              3177.9744              3184.5516
 Red. masses --      1.0889                 1.0917                 1.0910
 Frc consts  --      6.4450                 6.4961                 6.5189
 IR Inten    --     26.4699                21.8501                 9.4470

 - Thermochemistry -
 -------------------
 Temperature   298.150 Kelvin.  Pressure   1.00000 Atm.
 Atom     1 has atomic number  6 and mass  12.00000

 Molecular mass:   176.10754 amu.
 Principal axes and moments of inertia in atomic units:
                           1         2         3
     Eigenvalues --   604.626947100.138497671.06985
           X            0.99999   0.00409  -0.00000
           Y           -0.00409   0.99999   0.00001
           Z            0.00000  -0.00001   1.00000
 This molecule is an asymmetric top.
 Rotational symmetry number  1.
 Warning -- assumption of classical behavior for rotation
           may cause significant error
 Rotational temperatures (Kelvin)      0.14325     0.01220     0.01129
 Rotational constants (GHZ):           2.98488     0.25418     0.23527
 Zero-point vibrational energy     591472.4 (Joules/Mol)
                                  141.36529 (Kcal/Mol)
 Warning -- explicit consideration of  19 degrees of freedom as
           vibrations may cause significant error
 Vibrational temperatures:     50.79    61.04    88.62   110.92   190.25
          (Kelvin)            246.46   282.75   301.28   339.42   349.21
                              429.30   481.68   560.33   585.51   654.09
                              754.21   786.77   808.09   855.82  1077.95
                             1098.50  1142.17  1160.06  1232.35  1257.34
                             1290.56  1302.97  1318.58  1352.36  1372.53
                             1403.74  1432.36  1441.45  1468.49  1487.27
                             1510.64  1560.44  1574.03  1659.97  1713.45
                             1768.41  1791.63  1813.62  1824.34  1868.42
                             1883.30  1912.00  1986.20  2000.25  2031.58
                             2047.57  2094.81  2128.83  2148.03  2159.21
                             2169.35  2172.98  2193.82  2232.90  2340.10
                             2392.12  4319.58  4363.24  4370.49  4370.53
                             4421.04  4462.33  4464.97  4473.21  4504.88
                             4521.97  4535.73  4560.15  4572.40  4581.86

 Zero-point correction=                           0.225280 (Hartree/Particle)
 Thermal correction to Energy=                    0.238418
 Thermal correction to Enthalpy=                  0.239362
 Thermal correction to Gibbs Free Energy=         0.183599
 Sum of electronic and zero-point Energies=           -557.276630
 Sum of electronic and thermal Energies=              -557.263492
 Sum of electronic and thermal Enthalpies=            -557.262547
 Sum of electronic and thermal Free Energies=         -557.318310

                     E (Thermal)             CV                S
                      KCal/Mol        Cal/Mol-Kelvin    Cal/Mol-Kelvin
 Total                  149.610             48.621            117.363
 Electronic               0.000              0.000              1.377
 Translational            0.889              2.981             41.405
 Rotational               0.889              2.981             31.866
 Vibrational            147.832             42.659             42.715
 Vibration     1          0.594              1.982              5.507
 Vibration     2          0.595              1.980              5.142
 Vibration     3          0.597              1.973              4.406
 Vibration     4          0.599              1.964              3.964
 Vibration     5          0.612              1.921              2.913
 Vibration     6          0.626              1.878              2.421
 Vibration     7          0.636              1.845              2.165
 Vibration     8          0.642              1.826              2.049
 Vibration     9          0.655              1.786              1.834
 Vibration    10          0.659              1.775              1.783
 Vibration    11          0.691              1.677              1.426
 Vibration    12          0.716              1.606              1.237
 Vibration    13          0.757              1.493              1.002
 Vibration    14          0.772              1.455              0.937
 Vibration    15          0.813              1.351              0.782
 Vibration    16          0.879              1.196              0.600
 Vibration    17          0.902              1.147              0.551
 Vibration    18          0.917              1.114              0.521
 Vibration    19          0.953              1.043              0.459

 Optimization completed.
    -- Stationary point found.
 Normal termination of Gaussian 16 at Sat May 20 13:45:09 2023.
