 Gaussian 16, Revision A.03,
 Gaussian 16:  ES64L-G16RevA.03 25-Dec-2016

 -----------------------------
 # opt freq b3lyp/6-31g(2df,p)
 -----------------------------

 -------------------
 Title Card Required
 -------------------
 Symbolic Z-matrix:
 Charge =  0 Multiplicity = 1

 SCF Done:  E(RB3LYP) =  -951.645016426     A.U. after   31 cycles
 SCF Done:  E(RB3LYP) =  -951.702047966     A.U. after   18 cycles
 SCF Done:  E(RB3LYP) =  -951.755136819     A.U. after   16 cycles
 SCF Done:  E(RB3LYP) =  -951.765841348     A.U. after   16 cycles
 SCF Done:  E(RB3LYP) =  -951.815612292     A.U. after   15 cycles
 SCF Done:  E(RB3LYP) =  -951.804273866     A.U. after   14 cycles
 SCF Done:  E(RB3LYP) =  -951.821107152     A.U. after   14 cycles
 SCF Done:  E(RB3LYP) =  -951.824982971     A.U. after   14 cycles
 SCF Done:  E(RB3LYP) =  -951.824235933     A.U. after   15 cycles
 SCF Done:  E(RB3LYP) =  -951.826982136     A.U. after   14 cycles
 SCF Done:  E(RB3LYP) =  -951.863273385     A.U. after   11 cycles
 SCF Done:  E(RB3LYP) =  -951.863365882     A.U. after   11 cycles
 SCF Done:  E(RB3LYP) =  -951.863392911     A.U. after   10 cycles
 SCF Done:  E(RB3LYP) =  -951.863400542     A.U. after   10 cycles
 SCF Done:  E(RB3LYP) =  -951.863403390     A.U. after    9 cycles
 SCF Done:  E(RB3LYP) =  -951.863404085     A.U. after    8 cycles
 SCF Done:  E(RB3LYP) =  -951.863404461     A.U. after    8 cycles
 SCF Done:  E(RB3LYP) =  -951.863404580     A.U. after    7 cycles
 SCF Done:  E(RB3LYP) =  -951.863404619     A.U. after    7 cycles
 Optimization completed.
    -- Stationary point found.
 Normal termination of Gaussian 16 at Thu May 18 04:43:49 2023.

 ----------------------------------------------------------------------
 #N Geom=AllCheck Guess=TCheck SCRF=Check GenChk RB3LYP/6-31G(2df,p) Fr
 eq
 ----------------------------------------------------------------------

 Structure from the checkpoint file:  "CCCqdOrC1dCCdC1CNqOrCCCdCNNCdNO.chk"
 -------------------
 Title Card Required
 -------------------
 Charge =  0 Multiplicity = 1

                         Standard orientation:
 ---------------------------------------------------------------------
 Center     Atomic      Atomic             Coordinates (Angstroms)
 Number     Number       Type             X           Y           Z
 ---------------------------------------------------------------------
      1          6           0        4.781239    3.523249   -0.055809
      2          6           0        4.235802    2.125761   -0.343263
      3          6           0        5.209004    1.015413    0.047041
      4          8           0        6.329775    1.259239    0.471442
      5          6           0        4.765369   -0.362902   -0.073691
      6          6           0        5.458721   -1.724711    0.293487
      7          6           0        4.362290   -2.393482   -0.069667
      8          6           0        3.665793   -1.050782   -0.450044
      9          6           0        2.313958   -0.751544   -0.986074
     10          7           0        1.290060   -1.070334    0.021485
     11          8           0        1.397065   -0.035544    1.024825
     12          6           0       -0.064998   -0.965869   -0.525241
     13          6           0       -1.125700   -1.386197    0.499703
     14          6           0       -2.509566   -1.395245   -0.083054
     15          6           0       -3.510668   -0.631525    0.360240
     16          7           0       -4.838535   -0.699492   -0.072882
     17          7           0       -5.522249    0.526216   -0.082477
     18          6           0       -6.874946    0.444334    0.209228
     19          7           0       -7.706632    1.216229   -0.372092
     20          8           0       -8.990279    1.068389    0.192446
     21          1           0        4.061257    4.287699   -0.361882
     22          1           0        5.719685    3.694142   -0.588755
     23          1           0        4.988058    3.650290    1.010031
     24          1           0        4.004510    2.013843   -1.411635
     25          1           0        3.289492    1.948999    0.182817
     26          1           0        6.433952   -1.981877    0.681112
     27          1           0        4.059388   -3.430178   -0.105149
     28          1           0        2.122066   -1.402999   -1.849248
     29          1           0        2.235408    0.292935   -1.318296
     30          1           0        1.721923   -0.512067    1.796619
     31          1           0       -0.102384   -1.633786   -1.393812
     32          1           0       -0.271045    0.057117   -0.880929
     33          1           0       -1.080306   -0.702847    1.352630
     34          1           0       -0.854124   -2.382824    0.874553
     35          1           0       -2.693432   -2.085927   -0.906687
     36          1           0       -3.374666    0.082612    1.167387
     37          1           0       -4.972533   -1.248024   -0.918365
     38          1           0       -5.315936    1.136996   -0.869714
     39          1           0       -7.143245   -0.273016    0.983174
     40          1           0       -9.516849    1.664907   -0.348930
 ---------------------------------------------------------------------

 SCF Done:  E(RB3LYP) =  -951.863404619     A.U. after    1 cycles

 The electronic state is 1-A.
 Alpha  occ. eigenvalues --  -19.17265 -19.16810 -19.11151 -14.38385 -14.38126
 Alpha  occ. eigenvalues --  -14.37894 -14.36127 -10.25352 -10.24291 -10.22866
 Alpha  occ. eigenvalues --  -10.22374 -10.21670 -10.21551 -10.20400 -10.19890
 Alpha  occ. eigenvalues --  -10.19689 -10.18862 -10.18171 -10.17881 -10.16669
 Alpha  occ. eigenvalues --   -1.06742  -1.06725  -1.01872  -1.01277  -0.88669
 Alpha  occ. eigenvalues --   -0.88258  -0.86518  -0.81254  -0.78160  -0.76801
 Alpha  occ. eigenvalues --   -0.73449  -0.69610  -0.67678  -0.62877  -0.61439
 Alpha  occ. eigenvalues --   -0.61122  -0.59872  -0.58951  -0.55535  -0.55482
 Alpha  occ. eigenvalues --   -0.52971  -0.50548  -0.50270  -0.49569  -0.48618
 Alpha  occ. eigenvalues --   -0.47981  -0.47661  -0.45470  -0.45012  -0.43762
 Alpha  occ. eigenvalues --   -0.43167  -0.42921  -0.41881  -0.40754  -0.40268
 Alpha  occ. eigenvalues --   -0.39934  -0.38713  -0.38058  -0.37800  -0.36810
 Alpha  occ. eigenvalues --   -0.36483  -0.34991  -0.34604  -0.34439  -0.33516
 Alpha  occ. eigenvalues --   -0.32848  -0.32257  -0.32044  -0.29847  -0.27742
 Alpha  occ. eigenvalues --   -0.24469  -0.23522  -0.22586  -0.21073  -0.19866
 Alpha virt. eigenvalues --   -0.08064   0.01021   0.01606   0.02669   0.06271
 Alpha virt. eigenvalues --    0.07476   0.08379   0.08445   0.09781   0.10519
 Alpha virt. eigenvalues --    0.11166   0.11317   0.11992   0.12120   0.12783

 Mulliken charges:
               1
     1  C   -0.378922
     2  C   -0.309719
     3  C    0.232470
     4  O   -0.338949
     5  C    0.179823
     6  C   -0.165553
     7  C   -0.171168
     8  C    0.188824
     9  C   -0.280920
    10  N   -0.066749
    11  O   -0.410892
    12  C   -0.074142
    13  C   -0.247079
    14  C   -0.151964
    15  C    0.074735
    16  N   -0.297513
    17  N   -0.284030
    18  C    0.167825
    19  N   -0.179439
    20  O   -0.392621
    21  H    0.103551
    22  H    0.129959
    23  H    0.127640
    24  H    0.115358
    25  H    0.134835
    26  H    0.133986
    27  H    0.120118
    28  H    0.119419
    29  H    0.111779
    30  H    0.304412
    31  H    0.100069
    32  H    0.095789
    33  H    0.109403
    34  H    0.104093
    35  H    0.067467
    36  H    0.111810
    37  H    0.239350
    38  H    0.245538
    39  H    0.125235
    40  H    0.306172
 Sum of Mulliken charges =  -0.00000

 Dipole moment (field-independent basis, Debye):
    X=             -2.7298    Y=             -2.2691    Z=             -2.3569  Tot=              4.2609
 Quadrupole moment (field-independent basis, Debye-Ang):
   XX=           -150.4482   YY=           -114.5803   ZZ=           -112.0679
   XY=            -10.3890   XZ=              5.0475   YZ=             -0.8409

  Exact polarizability: 281.477  -8.682 181.891  13.646   2.573 125.025
 Approx polarizability: 358.078   7.450 273.304  30.903  14.213 207.937

                      1                      2                      3
                      A                      A                      A
 Frequencies --     13.1535                18.0130                27.1818
 Red. masses --      5.8325                 5.1507                 4.4650
 Frc consts  --      0.0006                 0.0010                 0.0019
 IR Inten    --      0.4612                 0.2504                 0.7191

                      4                      5                      6
                      A                      A                      A
 Frequencies --     40.7639                45.6464                57.2604
 Red. masses --      5.4190                 4.7544                 4.5724
 Frc consts  --      0.0053                 0.0058                 0.0088
 IR Inten    --      0.6315                 1.5713                 0.8417

                      7                      8                      9
                      A                      A                      A
 Frequencies --     79.7892                85.4114                87.0882
 Red. masses --      3.4669                 5.1975                 2.1151
 Frc consts  --      0.0130                 0.0223                 0.0095
 IR Inten    --      1.9269                 3.4591                 1.6014

                     10                     11                     12
                      A                      A                      A
 Frequencies --    100.4993               119.8432               149.5603
 Red. masses --      3.5409                 3.3127                 2.6870
 Frc consts  --      0.0211                 0.0280                 0.0354
 IR Inten    --      0.9816                 1.8122                 0.5477

                     13                     14                     15
                      A                      A                      A
 Frequencies --    166.5147               179.9475               190.1526
 Red. masses --      2.1296                 3.3732                 2.5341
 Frc consts  --      0.0348                 0.0644                 0.0540
 IR Inten    --      1.8414                24.9148                 0.3758

                     16                     17                     18
                      A                      A                      A
 Frequencies --    200.8945               215.3659               237.8958
 Red. masses --      4.0211                 1.6219                 4.0085
 Frc consts  --      0.0956                 0.0443                 0.1337
 IR Inten    --      0.6273                 2.0242                 1.5903

                     19                     20                     21
                      A                      A                      A
 Frequencies --    246.3614               273.0166               295.6081
 Red. masses --      4.0588                 3.6150                 3.7605
 Frc consts  --      0.1451                 0.1588                 0.1936
 IR Inten    --      3.2856                 4.8000                 8.0228

                     22                     23                     24
                      A                      A                      A
 Frequencies --    312.3671               313.7241               339.7387
 Red. masses --      1.5783                 1.3488                 3.4679
 Frc consts  --      0.0907                 0.0782                 0.2358
 IR Inten    --     79.8993               114.1402                 7.4143

                     25                     26                     27
                      A                      A                      A
 Frequencies --    359.6187               364.6587               392.8797
 Red. masses --      3.9016                 1.9012                 3.8324
 Frc consts  --      0.2973                 0.1490                 0.3485
 IR Inten    --     19.3843                50.8478                 4.3626

                     28                     29                     30
                      A                      A                      A
 Frequencies --    425.5598               442.6257               457.7933
 Red. masses --      3.2453                 2.8161                 3.0071
 Frc consts  --      0.3463                 0.3251                 0.3713
 IR Inten    --      1.7597                14.0703                 7.6924

                     31                     32                     33
                      A                      A                      A
 Frequencies --    517.4733               538.6520               577.3331
 Red. masses --      3.8716                 3.2302                 3.1213
 Frc consts  --      0.6108                 0.5522                 0.6130
 IR Inten    --      8.6006                 0.2982                15.2817

                     34                     35                     36
                      A                      A                      A
 Frequencies --    598.5129               609.4711               645.1908
 Red. masses --      3.1355                 2.4248                 1.3872
 Frc consts  --      0.6618                 0.5307                 0.3402
 IR Inten    --      6.0163                64.1047                29.8181

                     37                     38                     39
                      A                      A                      A
 Frequencies --    677.6997               710.4941               720.7417
 Red. masses --      3.3310                 3.6921                 1.2926
 Frc consts  --      0.9014                 1.0981                 0.3956
 IR Inten    --      3.5940                 0.6348                15.0429

                     40                     41                     42
                      A                      A                      A
 Frequencies --    749.3737               797.8876               804.1202
 Red. masses --      3.2666                 1.2802                 1.9741
 Frc consts  --      1.0808                 0.4802                 0.7521
 IR Inten    --      3.7926                 0.6696               276.3752

                     43                     44                     45
                      A                      A                      A
 Frequencies --    817.3318               830.2403               843.7691
 Red. masses --      1.5147                 2.5116                 2.4556
 Frc consts  --      0.5962                 1.0200                 1.0300
 IR Inten    --     14.4584                19.6354                 3.6104

                     46                     47                     48
                      A                      A                      A
 Frequencies --    847.9244               856.6503               929.2142
 Red. masses --      3.9054                 1.4610                 3.7451
 Frc consts  --      1.6543                 0.6317                 1.9052
 IR Inten    --      8.1708                 0.7777                42.0066

                     49                     50                     51
                      A                      A                      A
 Frequencies --    975.8902               981.2074               994.1306
 Red. masses --      1.5727                 1.6986                 1.7946
 Frc consts  --      0.8825                 0.9635                 1.0450
 IR Inten    --     68.3558                31.2314                63.0904

                     52                     53                     54
                      A                      A                      A
 Frequencies --    999.3176              1009.3531              1012.1495
 Red. masses --      2.9230                 1.9704                 2.5781
 Frc consts  --      1.7198                 1.1827                 1.5561
 IR Inten    --     77.9912                14.3565                49.9200

                     55                     56                     57
                      A                      A                      A
 Frequencies --   1035.5189              1058.4868              1066.5542
 Red. masses --      2.3938                 1.3790                 2.4417
 Frc consts  --      1.5124                 0.9103                 1.6365
 IR Inten    --     20.1999                 2.3678                12.2908

                     58                     59                     60
                      A                      A                      A
 Frequencies --   1087.4336              1097.4099              1101.8512
 Red. masses --      1.6692                 2.8001                 2.4351
 Frc consts  --      1.1630                 1.9868                 1.7419
 IR Inten    --      0.7436                46.9114                 3.7968

                     61                     62                     63
                      A                      A                      A
 Frequencies --   1115.4456              1170.2245              1172.8204
 Red. masses --      2.6414                 2.8001                 2.8856
 Frc consts  --      1.9363                 2.2592                 2.3386
 IR Inten    --      5.8406                23.8532                44.8366

                     64                     65                     66
                      A                      A                      A
 Frequencies --   1213.8639              1219.6150              1236.5473
 Red. masses --      1.8197                 2.0543                 1.7089
 Frc consts  --      1.5798                 1.8004                 1.5395
 IR Inten    --     52.4980                37.0191               108.7572

                     67                     68                     69
                      A                      A                      A
 Frequencies --   1263.9098              1273.1795              1278.1426
 Red. masses --      1.5092                 2.2929                 1.2146
 Frc consts  --      1.4204                 2.1899                 1.1691
 IR Inten    --      3.0998                84.4479                 2.8069

                     70                     71                     72
                      A                      A                      A
 Frequencies --   1279.9516              1286.3499              1287.0610
 Red. masses --      1.2996                 1.6344                 1.6351
 Frc consts  --      1.2544                 1.5934                 1.5958
 IR Inten    --      4.7604                36.8276                19.6770

                     73                     74                     75
                      A                      A                      A
 Frequencies --   1316.3923              1323.4752              1335.1482
 Red. masses --      1.1969                 1.3023                 1.2218
 Frc consts  --      1.2220                 1.3439                 1.2832
 IR Inten    --     10.5712                 2.1914                 3.3678

                     76                     77                     78
                      A                      A                      A
 Frequencies --   1347.4773              1375.9042              1379.1283
 Red. masses --      1.2795                 1.4331                 1.9555
 Frc consts  --      1.3688                 1.5984                 2.1914
 IR Inten    --     30.9631                28.9534                39.2690

                     79                     80                     81
                      A                      A                      A
 Frequencies --   1407.9439              1411.6461              1415.6721
 Red. masses --      1.2967                 1.2285                 1.4387
 Frc consts  --      1.5145                 1.4423                 1.6988
 IR Inten    --      4.5952                 3.2968                 3.0823

                     82                     83                     84
                      A                      A                      A
 Frequencies --   1455.7898              1469.1472              1473.3516
 Red. masses --      1.0933                 1.3292                 1.1175
 Frc consts  --      1.3652                 1.6904                 1.4293
 IR Inten    --      5.5143                 2.5509                 2.5455

                     85                     86                     87
                      A                      A                      A
 Frequencies --   1478.5505              1491.5230              1495.2201
 Red. masses --      1.1060                 1.0387                 1.1089
 Frc consts  --      1.4246                 1.3615                 1.4607
 IR Inten    --      5.2258                 4.3702                 2.8288

                     88                     89                     90
                      A                      A                      A
 Frequencies --   1497.8757              1510.5111              1620.8202
 Red. masses --      1.0524                 1.4129                 6.2518
 Frc consts  --      1.3912                 1.8994                 9.6766
 IR Inten    --      6.3930                11.3641                15.4517

                     91                     92                     93
                      A                      A                      A
 Frequencies --   1708.0200              1720.3315              1731.3659
 Red. masses --     10.2225                11.2027                 6.2669
 Frc consts  --     17.5708                19.5342                11.0684
 IR Inten    --    157.2248               174.3829                 7.9724

                     94                     95                     96
                      A                      A                      A
 Frequencies --   1748.4237              2972.1150              3001.2190
 Red. masses --      5.0125                 1.0669                 1.0566
 Frc consts  --      9.0282                 5.5525                 5.6076
 IR Inten    --    205.1483                21.9895                20.8853

                     97                     98                     99
                      A                      A                      A
 Frequencies --   3012.4832              3018.0766              3047.9270
 Red. masses --      1.0673                 1.0641                 1.0995
 Frc consts  --      5.7067                 5.7108                 6.0180
 IR Inten    --     45.3376                23.4514                12.3744

                    100                    101                    102
                      A                      A                      A
 Frequencies --   3049.3343              3058.7920              3059.7136
 Red. masses --      1.0374                 1.0948                 1.0928
 Frc consts  --      5.6834                 6.0349                 6.0279
 IR Inten    --     23.3831                 3.3491                19.1280

                    103                    104                    105
                      A                      A                      A
 Frequencies --   3089.9085              3118.3039              3119.0374
 Red. masses --      1.0937                 1.0885                 1.1016
 Frc consts  --      6.1523                 6.2363                 6.3142
 IR Inten    --     14.6494                33.6172                21.3916

                    106                    107                    108
                      A                      A                      A
 Frequencies --   3127.2178              3151.3874              3180.7814
 Red. masses --      1.1015                 1.0915                 1.0899
 Frc consts  --      6.3469                 6.3864                 6.4970
 IR Inten    --     19.3572                 6.3177                 7.1907

                    109                    110                    111
                      A                      A                      A
 Frequencies --   3222.2872              3257.7693              3479.4754
 Red. masses --      1.0837                 1.1176                 1.0740
 Frc consts  --      6.6299                 6.9882                 7.6612
 IR Inten    --      4.1095                 7.8607                33.7797

                    112                    113                    114
                      A                      A                      A
 Frequencies --   3481.4738              3809.0170              3828.3581
 Red. masses --      1.0753                 1.0681                 1.0678
 Frc consts  --      7.6792                 9.1302                 9.2206
 IR Inten    --      3.2744                43.5934                94.7397

 - Thermochemistry -
 -------------------
 Temperature   298.150 Kelvin.  Pressure   1.00000 Atm.
 Atom     1 has atomic number  6 and mass  12.00000

 Molecular mass:   280.15354 amu.
 Principal axes and moments of inertia in atomic units:
                           1         2         3
     Eigenvalues --  2353.56143********************
           X            0.99998   0.00587  -0.00040
           Y           -0.00587   0.99998  -0.00342
           Z            0.00038   0.00342   0.99999
 This molecule is an asymmetric top.
 Rotational symmetry number  1.
 Warning -- assumption of classical behavior for rotation
           may cause significant error
 Rotational temperatures (Kelvin)      0.03680     0.00360     0.00334
 Rotational constants (GHZ):           0.76681     0.07498     0.06963
 Zero-point vibrational energy     857278.8 (Joules/Mol)
                                  204.89455 (Kcal/Mol)
 Warning -- explicit consideration of  35 degrees of freedom as
           vibrations may cause significant error
 Vibrational temperatures:     18.92    25.92    39.11    58.65    65.68
          (Kelvin)             82.38   114.80   122.89   125.30   144.60
                              172.43   215.18   239.58   258.90   273.59
                              289.04   309.86   342.28   354.46   392.81
                              425.31   449.43   451.38   488.81   517.41
                              524.66   565.27   612.29   636.84   658.66
                              744.53   775.00   830.65   861.13   876.89
                              928.29   975.06  1022.24  1036.99  1078.18
                             1147.98  1156.95  1175.96  1194.53  1214.00
                             1219.97  1232.53  1336.93  1404.09  1411.74
                             1430.33  1437.80  1452.23  1456.26  1489.88
                             1522.93  1534.53  1564.57  1578.93  1585.32
                             1604.88  1683.69  1687.43  1746.48  1754.75
                             1779.12  1818.48  1831.82  1838.96  1841.56
                             1850.77  1851.79  1893.99  1904.19  1920.98
                             1938.72  1979.62  1984.26  2025.72  2031.04
                             2036.84  2094.56  2113.78  2119.82  2127.30
                             2145.97  2151.29  2155.11  2173.29  2332.00
                             2457.46  2475.17  2491.05  2515.59  4276.21
                             4318.08  4334.29  4342.34  4385.29  4387.31
                             4400.92  4402.25  4445.69  4486.54  4487.60
                             4499.37  4534.14  4576.43  4636.15  4687.20
                             5006.19  5009.06  5480.33  5508.15

 Zero-point correction=                           0.326520 (Hartree/Particle)
 Thermal correction to Energy=                    0.349416
 Thermal correction to Enthalpy=                  0.350360
 Thermal correction to Gibbs Free Energy=         0.270185
 Sum of electronic and zero-point Energies=           -951.536884
 Sum of electronic and thermal Energies=              -951.513989
 Sum of electronic and thermal Enthalpies=            -951.513044
 Sum of electronic and thermal Free Energies=         -951.593220

                     E (Thermal)             CV                S
                      KCal/Mol        Cal/Mol-Kelvin    Cal/Mol-Kelvin
 Total                  219.262             81.945            168.744
 Electronic               0.000              0.000              0.000
 Translational            0.889              2.981             42.789
 Rotational               0.889              2.981             35.639
 Vibrational            217.484             75.983             90.316
 Vibration     1          0.593              1.987              7.466
 Vibration     2          0.593              1.986              6.842
 Vibration     3          0.593              1.984              6.025
 Vibration     4          0.594              1.981              5.222
 Vibration     5          0.595              1.979              4.998
 Vibration     6          0.596              1.975              4.549
 Vibration     7          0.600              1.963              3.896
 Vibration     8          0.601              1.959              3.763
 Vibration     9          0.601              1.958              3.724
 Vibration    10          0.604              1.949              3.445
 Vibration    11          0.609              1.933              3.103
 Vibration    12          0.618              1.903              2.678
 Vibration    13          0.624              1.884              2.474
 Vibration    14          0.629              1.867              2.329
 Vibration    15          0.633              1.853              2.226
 Vibration    16          0.638              1.839              2.125
 Vibration    17          0.645              1.818              1.998
 Vibration    18          0.656              1.783              1.819
 Vibration    19          0.661              1.769              1.756
 Vibration    20          0.676              1.723              1.577
 Vibration    21          0.690              1.682              1.442
 Vibration    22          0.701              1.650              1.350
 Vibration    23          0.702              1.647              1.343
 Vibration    24          0.720              1.596              1.213
 Vibration    25          0.734              1.555              1.124
 Vibration    26          0.738              1.545              1.102
 Vibration    27          0.760              1.485              0.989
 Vibration    28          0.787              1.415              0.873
 Vibration    29          0.802              1.377              0.818
 Vibration    30          0.816              1.344              0.773
 Vibration    31          0.872              1.211              0.616
 Vibration    32          0.894              1.165              0.568
 Vibration    33          0.934              1.080              0.490
 Vibration    34          0.957              1.035              0.452
 Vibration    35          0.968              1.012              0.434

                           ! Non-Optimized Parameters !
 Normal termination of Gaussian 16 at Thu May 18 09:08:16 2023.
