 Gaussian 16, Revision A.03,
 Gaussian 16:  ES64L-G16RevA.03 25-Dec-2016

 -----------------------------
 # opt freq b3lyp/6-31g(2df,p)
 -----------------------------

 -------------------
 Title Card Required
 -------------------
 Symbolic Z-matrix:
 Charge =  0 Multiplicity = 1

 SCF Done:  E(RB3LYP) =  -1942.73483579     A.U. after   25 cycles
 SCF Done:  E(RB3LYP) =  -1942.75594847     A.U. after   17 cycles
 SCF Done:  E(RB3LYP) =  -1942.76712730     A.U. after   17 cycles
 SCF Done:  E(RB3LYP) =  -1942.77691904     A.U. after   16 cycles
 SCF Done:  E(RB3LYP) =  -1942.78402673     A.U. after   18 cycles
 SCF Done:  E(RB3LYP) =  -1942.78677045     A.U. after   14 cycles
 SCF Done:  E(RB3LYP) =  -1942.78817801     A.U. after   15 cycles
 SCF Done:  E(RB3LYP) =  -1942.78954393     A.U. after   15 cycles
 SCF Done:  E(RB3LYP) =  -1942.79117122     A.U. after   14 cycles
 SCF Done:  E(RB3LYP) =  -1942.79423064     A.U. after   16 cycles
 SCF Done:  E(RB3LYP) =  -1942.81226917     A.U. after   12 cycles
 SCF Done:  E(RB3LYP) =  -1942.81230059     A.U. after   12 cycles
 SCF Done:  E(RB3LYP) =  -1942.81230534     A.U. after   10 cycles
 SCF Done:  E(RB3LYP) =  -1942.81231033     A.U. after   11 cycles
 SCF Done:  E(RB3LYP) =  -1942.81231196     A.U. after    9 cycles
 SCF Done:  E(RB3LYP) =  -1942.81231390     A.U. after   10 cycles
 SCF Done:  E(RB3LYP) =  -1942.81231479     A.U. after   10 cycles
 SCF Done:  E(RB3LYP) =  -1942.81231492     A.U. after    8 cycles
 SCF Done:  E(RB3LYP) =  -1942.81231495     A.U. after    7 cycles
 Optimization completed.
    -- Stationary point found.
 Normal termination of Gaussian 16 at Wed May 17 13:41:33 2023.

 ----------------------------------------------------------------------
 #N Geom=AllCheck Guess=TCheck SCRF=Check GenChk RB3LYP/6-31G(2df,p) Fr
 eq
 ----------------------------------------------------------------------

 Structure from the checkpoint file:  "CCCqC[SH]dSrd[SH]C1dCCdCC1dS.chk"
 -------------------
 Title Card Required
 -------------------
 Charge =  0 Multiplicity = 1

                         Standard orientation:
 ---------------------------------------------------------------------
 Center     Atomic      Atomic             Coordinates (Angstroms)
 Number     Number       Type             X           Y           Z
 ---------------------------------------------------------------------
      1          6           0        0.007958    3.211960    1.146414
      2          6           0        0.556828    2.652647   -0.178025
      3          6           0        0.517800    1.141384   -0.278916
      4          6           0        1.389750    0.279053    0.497842
      5         16           0        3.010636   -0.237294   -0.505007
      6         16           0        4.275950   -1.200956    0.702551
      7         16           0       -0.605707    0.474988   -1.347776
      8          6           0       -1.506358   -0.816448   -0.540434
      9          6           0       -1.150986   -2.116681   -0.397746
     10          6           0       -2.183153   -2.794947    0.411306
     11          6           0       -3.141333   -1.904899    0.749825
     12          6           0       -2.782014   -0.592135    0.189018
     13         16           0       -3.633994    0.796866    0.319094
     14          1           0        0.102967    4.302522    1.178273
     15          1           0        0.551763    2.805747    2.005613
     16          1           0       -1.048609    2.955063    1.267008
     17          1           0        1.593692    2.999051   -0.306031
     18          1           0       -0.002864    3.091822   -1.011271
     19          1           0        0.997972   -0.711096    0.743431
     20          1           0        1.807492    0.731675    1.398504
     21          1           0        3.428385    1.059951   -0.569709
     22          1           0        0.034831   -0.416953   -2.185705
     23          1           0       -0.281241   -2.601851   -0.822009
     24          1           0       -2.155346   -3.846642    0.663660
     25          1           0       -4.030159   -2.066566    1.340756
 ---------------------------------------------------------------------

 SCF Done:  E(RB3LYP) =  -1942.81231495     A.U. after    1 cycles

 The electronic state is 1-A.
 Alpha  occ. eigenvalues --  -88.98656 -88.94793 -88.88643 -88.82115 -10.27583
 Alpha  occ. eigenvalues --  -10.23961 -10.23677 -10.23223 -10.22893 -10.21457
 Alpha  occ. eigenvalues --  -10.20697 -10.20307 -10.17921  -8.04015  -8.00612
 Alpha  occ. eigenvalues --   -7.95094  -7.88729  -6.00330  -6.00281  -5.99856
 Alpha  occ. eigenvalues --   -5.96902  -5.96810  -5.96381  -5.91479  -5.91341
 Alpha  occ. eigenvalues --   -5.90576  -5.85427  -5.84469  -5.84327  -0.91753
 Alpha  occ. eigenvalues --   -0.87243  -0.82165  -0.79327  -0.78448  -0.73813
 Alpha  occ. eigenvalues --   -0.71962  -0.66827  -0.64883  -0.60831  -0.58268
 Alpha  occ. eigenvalues --   -0.57835  -0.53717  -0.51522  -0.50328  -0.47576
 Alpha  occ. eigenvalues --   -0.45190  -0.43946  -0.43271  -0.42915  -0.41933
 Alpha  occ. eigenvalues --   -0.40914  -0.40576  -0.39241  -0.38999  -0.37584
 Alpha  occ. eigenvalues --   -0.35954  -0.35113  -0.34448  -0.32980  -0.30743
 Alpha  occ. eigenvalues --   -0.26224  -0.24830  -0.22807  -0.20560  -0.18570
 Alpha virt. eigenvalues --   -0.14694  -0.02478  -0.00864  -0.00386   0.01980
 Alpha virt. eigenvalues --    0.03046   0.03971   0.04771   0.07334   0.08171
 Alpha virt. eigenvalues --    0.09252   0.11157   0.12474   0.13190   0.13451

 Mulliken charges:
               1
     1  C   -0.370343
     2  C   -0.274937
     3  C    0.132095
     4  C   -0.331185
     5  S    0.071436
     6  S   -0.426962
     7  S    0.008227
     8  C    0.090596
     9  C   -0.182641
    10  C   -0.093090
    11  C   -0.137948
    12  C    0.174494
    13  S   -0.243136
    14  H    0.113003
    15  H    0.117563
    16  H    0.135390
    17  H    0.099672
    18  H    0.117334
    19  H    0.144521
    20  H    0.158968
    21  H    0.155407
    22  H    0.129318
    23  H    0.143871
    24  H    0.132566
    25  H    0.135783
 Sum of Mulliken charges =  -0.00000

 Dipole moment (field-independent basis, Debye):
    X=             -4.0292    Y=              0.1690    Z=             -1.9667  Tot=              4.4868
 Quadrupole moment (field-independent basis, Debye-Ang):
   XX=           -135.0036   YY=            -99.6109   ZZ=           -105.4463
   XY=             17.1955   XZ=             -5.5493   YZ=              0.2946

  Exact polarizability: 410.075   7.493 211.133  -5.165  -8.027 125.154
 Approx polarizability: 852.116   7.994 413.864  -9.201 -21.826 230.038

                      1                      2                      3
                      A                      A                      A
 Frequencies --     24.1868                27.5303                45.6369
 Red. masses --      8.8964                 8.1114                 3.5526
 Frc consts  --      0.0031                 0.0036                 0.0044
 IR Inten    --      5.6797                 2.0357                 0.0520

                      4                      5                      6
                      A                      A                      A
 Frequencies --     57.9946                63.6442                79.6261
 Red. masses --      4.5702                 4.8043                 8.0428
 Frc consts  --      0.0091                 0.0115                 0.0300
 IR Inten    --      1.9067                 0.6704                 0.5859

                      7                      8                      9
                      A                      A                      A
 Frequencies --    100.7429               145.7548               162.4059
 Red. masses --      3.4969                 4.3551                 4.9079
 Frc consts  --      0.0209                 0.0545                 0.0763
 IR Inten    --      1.0930                 1.7982                 2.3974

                     10                     11                     12
                      A                      A                      A
 Frequencies --    176.2209               208.1339               229.7844
 Red. masses --      6.0075                 5.1121                 1.3687
 Frc consts  --      0.1099                 0.1305                 0.0426
 IR Inten    --      2.2318                 4.9365                 0.8914

                     13                     14                     15
                      A                      A                      A
 Frequencies --    287.6778               309.2672               345.1310
 Red. masses --      4.1815                 3.1295                 2.6605
 Frc consts  --      0.2039                 0.1764                 0.1867
 IR Inten    --      8.3337                 4.9823                 6.0470

                     16                     17                     18
                      A                      A                      A
 Frequencies --    375.6697               399.6400               456.0662
 Red. masses --      4.0279                 3.1150                 9.0700
 Frc consts  --      0.3349                 0.2931                 1.1115
 IR Inten    --      2.0496                 9.9075                37.5210

                     19                     20                     21
                      A                      A                      A
 Frequencies --    510.5573               537.1742               553.9204
 Red. masses --      2.7794                 6.0775                 7.9823
 Frc consts  --      0.4269                 1.0332                 1.4430
 IR Inten    --      4.0801                21.3109                36.0821

                     22                     23                     24
                      A                      A                      A
 Frequencies --    575.8858               666.6993               673.5780
 Red. masses --      8.7909                 3.1351                 3.1593
 Frc consts  --      1.7177                 0.8210                 0.8445
 IR Inten    --     58.7305                 8.1623                 2.4298

                     25                     26                     27
                      A                      A                      A
 Frequencies --    708.9597               751.4152               763.4624
 Red. masses --      1.1320                 1.4779                 4.4145
 Frc consts  --      0.3352                 0.4917                 1.5160
 IR Inten    --      5.8698                39.4798                 9.5130

                     28                     29                     30
                      A                      A                      A
 Frequencies --    777.3305               796.8226               852.6734
 Red. masses --      1.2530                 1.5681                 1.3919
 Frc consts  --      0.4461                 0.5866                 0.5962
 IR Inten    --     14.8714                29.6652                27.0171

                     31                     32                     33
                      A                      A                      A
 Frequencies --    871.8688               917.6917               953.1072
 Red. masses --      1.3895                 1.5024                 1.4678
 Frc consts  --      0.6223                 0.7455                 0.7856
 IR Inten    --      7.3874                12.8964                 5.1949

                     34                     35                     36
                      A                      A                      A
 Frequencies --    955.8493               977.7412              1000.6459
 Red. masses --      1.8351                 1.8182                 2.6355
 Frc consts  --      0.9878                 1.0241                 1.5548
 IR Inten    --     10.2249                17.7665                40.7727

                     37                     38                     39
                      A                      A                      A
 Frequencies --   1017.4474              1050.0614              1078.7106
 Red. masses --      2.2603                 1.3629                 1.6573
 Frc consts  --      1.3786                 0.8854                 1.1362
 IR Inten    --     15.9232                 8.1060                15.2897

                     40                     41                     42
                      A                      A                      A
 Frequencies --   1108.2067              1110.7896              1150.4919
 Red. masses --      1.1982                 1.2465                 2.9683
 Frc consts  --      0.8670                 0.9061                 2.3149
 IR Inten    --     65.4115                 8.9808                23.7114

                     43                     44                     45
                      A                      A                      A
 Frequencies --   1205.7917              1210.0243              1260.7432
 Red. masses --      1.2124                 1.8342                 4.0673
 Frc consts  --      1.0386                 1.5823                 3.8090
 IR Inten    --     36.1963                30.9334               156.4569

                     46                     47                     48
                      A                      A                      A
 Frequencies --   1267.2482              1272.7804              1318.9550
 Red. masses --      1.9752                 2.4381                 1.2024
 Frc consts  --      1.8689                 2.3271                 1.2324
 IR Inten    --      8.3277                60.3928                22.3674

                     49                     50                     51
                      A                      A                      A
 Frequencies --   1357.2447              1367.3410              1406.1699
 Red. masses --      1.4154                 2.0836                 1.2198
 Frc consts  --      1.5362                 2.2952                 1.4210
 IR Inten    --     15.4479                91.9482                 5.9450

                     52                     53                     54
                      A                      A                      A
 Frequencies --   1455.8430              1469.5624              1494.8262
 Red. masses --      1.1487                 1.1010                 1.0562
 Frc consts  --      1.4344                 1.4009                 1.3905
 IR Inten    --     20.5430                28.5477                 3.7418

                     55                     56                     57
                      A                      A                      A
 Frequencies --   1500.2914              1503.1859              1599.2771
 Red. masses --      1.1524                 4.1826                 5.1301
 Frc consts  --      1.5283                 5.5683                 7.7308
 IR Inten    --     33.3732               229.7048                 0.4230

                     58                     59                     60
                      A                      A                      A
 Frequencies --   2304.8846              2476.6295              2983.6028
 Red. masses --      1.0387                 1.0399                 1.0703
 Frc consts  --      3.2512                 3.7581                 5.6135
 IR Inten    --    133.0666                45.5114                39.6980

                     61                     62                     63
                      A                      A                      A
 Frequencies --   3032.5442              3058.7146              3063.6206
 Red. masses --      1.0348                 1.0902                 1.0597
 Frc consts  --      5.6068                 6.0093                 5.8603
 IR Inten    --     29.0581                 5.6001                 4.7578

                     64                     65                     66
                      A                      A                      A
 Frequencies --   3101.1109              3112.6369              3135.4135
 Red. masses --      1.1011                 1.1025                 1.1082
 Frc consts  --      6.2387                 6.2936                 6.4186
 IR Inten    --     38.6718                17.8746                 2.6294

                     67                     68                     69
                      A                      A                      A
 Frequencies --   3217.2663              3229.7100              3259.6205
 Red. masses --      1.0919                 1.0932                 1.1025
 Frc consts  --      6.6588                 6.7189                 6.9019
 IR Inten    --     10.5318                 1.8115                 1.2091

 - Thermochemistry -
 -------------------
 Temperature   298.150 Kelvin.  Pressure   1.00000 Atm.
 Atom     1 has atomic number  6 and mass  12.00000

 Molecular mass:   247.98219 amu.
 Principal axes and moments of inertia in atomic units:
                           1         2         3
     Eigenvalues --  2584.758006536.462418131.88658
           X            0.99974   0.02254  -0.00348
           Y           -0.02247   0.99959   0.01779
           Z            0.00388  -0.01770   0.99984
 This molecule is an asymmetric top.
 Rotational symmetry number  1.
 Warning -- assumption of classical behavior for rotation
           may cause significant error
 Rotational temperatures (Kelvin)      0.03351     0.01325     0.01065
 Rotational constants (GHZ):           0.69822     0.27610     0.22193
 Zero-point vibrational energy     481624.0 (Joules/Mol)
                                  115.11090 (Kcal/Mol)
 Warning -- explicit consideration of  22 degrees of freedom as
           vibrations may cause significant error
 Vibrational temperatures:     34.80    39.61    65.66    83.44    91.57
          (Kelvin)            114.56   144.95   209.71   233.67   253.54
                              299.46   330.61   413.90   444.97   496.57
                              540.50   574.99   656.18   734.58   772.87
                              796.97   828.57   959.23   969.13  1020.03
                             1081.12  1098.45  1118.41  1146.45  1226.81
                             1254.42  1320.35  1371.31  1375.25  1406.75
                             1439.71  1463.88  1510.80  1552.02  1594.46
                             1598.18  1655.30  1734.87  1740.96  1813.93
                             1823.29  1831.25  1897.68  1952.77  1967.30
                             2023.16  2094.63  2114.37  2150.72  2158.58
                             2162.75  2301.00  3316.21  3563.32  4292.74
                             4363.15  4400.81  4407.87  4461.81  4478.39
                             4511.16  4628.93  4646.83  4689.87

 Zero-point correction=                           0.183441 (Hartree/Particle)
 Thermal correction to Energy=                    0.199190
 Thermal correction to Enthalpy=                  0.200134
 Thermal correction to Gibbs Free Energy=         0.136791
 Sum of electronic and zero-point Energies=          -1942.628874
 Sum of electronic and thermal Energies=             -1942.613125
 Sum of electronic and thermal Enthalpies=           -1942.612181
 Sum of electronic and thermal Free Energies=        -1942.675524

                     E (Thermal)             CV                S
                      KCal/Mol        Cal/Mol-Kelvin    Cal/Mol-Kelvin
 Total                  124.994             55.146            133.317
 Electronic               0.000              0.000              0.000
 Translational            0.889              2.981             42.425
 Rotational               0.889              2.981             33.285
 Vibrational            123.216             49.185             57.607
 Vibration     1          0.593              1.985              6.257
 Vibration     2          0.593              1.984              6.000
 Vibration     3          0.595              1.979              4.998
 Vibration     4          0.596              1.974              4.524
 Vibration     5          0.597              1.972              4.341
 Vibration     6          0.600              1.963              3.900
 Vibration     7          0.604              1.949              3.440
 Vibration     8          0.617              1.907              2.727
 Vibration     9          0.623              1.889              2.522
 Vibration    10          0.628              1.872              2.368
 Vibration    11          0.641              1.828              2.060
 Vibration    12          0.652              1.796              1.881
 Vibration    13          0.685              1.697              1.488
 Vibration    14          0.699              1.656              1.366
 Vibration    15          0.724              1.585              1.188
 Vibration    16          0.747              1.522              1.057
 Vibration    17          0.766              1.471              0.964
 Vibration    18          0.814              1.347              0.778
 Vibration    19          0.866              1.227              0.632
 Vibration    20          0.892              1.168              0.571
 Vibration    21          0.909              1.131              0.536
 Vibration    22          0.932              1.083              0.493

 Optimization completed.
    -- Stationary point found.
 Normal termination of Gaussian 16 at Wed May 17 15:03:25 2023.
