 Gaussian 16, Revision A.03,
 Gaussian 16:  ES64L-G16RevA.03 25-Dec-2016

 -----------------------------
 # opt freq b3lyp/6-31g(2df,p)
 -----------------------------

 -------------------
 Title Card Required
 -------------------
 Symbolic Z-matrix:
 Charge =  0 Multiplicity = 1

 SCF Done:  E(RB3LYP) =  -1941.29701075     A.U. after   20 cycles
 SCF Done:  E(RB3LYP) =  -1941.37640963     A.U. after   16 cycles
 SCF Done:  E(RB3LYP) =  -1941.47787489     A.U. after   16 cycles
 SCF Done:  E(RB3LYP) =  -1941.54605574     A.U. after   18 cycles
 SCF Done:  E(RB3LYP) =  -1941.57203858     A.U. after   15 cycles
 SCF Done:  E(RB3LYP) =  -1941.58763254     A.U. after   15 cycles
 SCF Done:  E(RB3LYP) =  -1941.59909351     A.U. after   15 cycles
 SCF Done:  E(RB3LYP) =  -1941.61069291     A.U. after   16 cycles
 SCF Done:  E(RB3LYP) =  -1941.61353112     A.U. after   16 cycles
 SCF Done:  E(RB3LYP) =  -1941.61458109     A.U. after   15 cycles
 SCF Done:  E(RB3LYP) =  -1941.62556146     A.U. after   13 cycles
 SCF Done:  E(RB3LYP) =  -1941.62566664     A.U. after   13 cycles
 SCF Done:  E(RB3LYP) =  -1941.62570011     A.U. after   12 cycles
 SCF Done:  E(RB3LYP) =  -1941.62572762     A.U. after   10 cycles
 SCF Done:  E(RB3LYP) =  -1941.62575361     A.U. after   11 cycles
 SCF Done:  E(RB3LYP) =  -1941.62577127     A.U. after   10 cycles
 SCF Done:  E(RB3LYP) =  -1941.62577909     A.U. after   10 cycles
 SCF Done:  E(RB3LYP) =  -1941.62578028     A.U. after    8 cycles
 SCF Done:  E(RB3LYP) =  -1941.62578091     A.U. after    8 cycles
 Optimization completed.
    -- Stationary point found.
 Normal termination of Gaussian 16 at Tue May 16 20:17:56 2023.

 ----------------------------------------------------------------------
 #N Geom=AllCheck Guess=TCheck SCRF=Check GenChk RB3LYP/6-31G(2df,p) Fr
 eq
 ----------------------------------------------------------------------

 Structure from the checkpoint file:  "CCdCC1dCqCrS[SH]dCdCCqdSrS1.chk"
 -------------------
 Title Card Required
 -------------------
 Charge =  0 Multiplicity = 1

                         Standard orientation:
 ---------------------------------------------------------------------
 Center     Atomic      Atomic             Coordinates (Angstroms)
 Number     Number       Type             X           Y           Z
 ---------------------------------------------------------------------
      1          6           0       -2.120476    3.623061   -0.918894
      2          6           0       -1.541557    2.412854   -0.256209
      3          6           0       -0.228004    2.148392   -0.183987
      4          6           0        0.412832    0.979638    0.412940
      5          6           0        1.773296    0.855626    0.530891
      6          6           0        2.721751    1.990331    0.207639
      7         16           0        2.542193   -0.674444    0.912606
      8         16           0        1.715359   -1.455392   -1.247959
      9          6           0        0.142914   -1.674660   -1.598474
     10          6           0       -1.113655   -1.459561   -1.259810
     11          6           0       -1.615090   -1.105762    0.092311
     12         16           0       -3.035987   -1.763587    0.604276
     13         16           0       -0.663052   -0.192342    1.247887
     14          1           0       -2.811041    3.339011   -1.723126
     15          1           0       -1.346284    4.268233   -1.343771
     16          1           0       -2.708004    4.215508   -0.206004
     17          1           0       -2.253801    1.726230    0.192624
     18          1           0        0.451047    2.856931   -0.652017
     19          1           0        2.271101    2.972347    0.367483
     20          1           0        3.065946    1.932461   -0.832957
     21          1           0        3.610910    1.914719    0.837598
     22          1           0        2.096512   -2.749821   -1.108334
     23          1           0       -1.904674   -1.722907   -1.958893
 ---------------------------------------------------------------------

 SCF Done:  E(RB3LYP) =  -1941.62578091     A.U. after    1 cycles

 The electronic state is 1-A.
 Alpha  occ. eigenvalues --  -88.98313 -88.90404 -88.86632 -88.85476 -10.28433
 Alpha  occ. eigenvalues --  -10.24204 -10.23694 -10.23569 -10.23268 -10.19987
 Alpha  occ. eigenvalues --  -10.19789 -10.19536 -10.19115  -8.04031  -7.96500
 Alpha  occ. eigenvalues --   -7.93052  -7.92024  -6.00363  -6.00204  -5.99798
 Alpha  occ. eigenvalues --   -5.92971  -5.92563  -5.92159  -5.89399  -5.89249
 Alpha  occ. eigenvalues --   -5.88618  -5.88361  -5.88226  -5.87576  -0.88125
 Alpha  occ. eigenvalues --   -0.85127  -0.83566  -0.79787  -0.75844  -0.74247
 Alpha  occ. eigenvalues --   -0.70874  -0.69294  -0.65629  -0.59592  -0.56445
 Alpha  occ. eigenvalues --   -0.55378  -0.51613  -0.49432  -0.47585  -0.46763
 Alpha  occ. eigenvalues --   -0.45455  -0.42488  -0.42186  -0.41953  -0.40837
 Alpha  occ. eigenvalues --   -0.39636  -0.39030  -0.37790  -0.36693  -0.36205
 Alpha  occ. eigenvalues --   -0.35358  -0.32696  -0.30847  -0.29044  -0.25941
 Alpha  occ. eigenvalues --   -0.25160  -0.22637  -0.22341  -0.21402
 Alpha virt. eigenvalues --   -0.10460  -0.08441  -0.04589  -0.01781   0.02420
 Alpha virt. eigenvalues --    0.03065   0.04555   0.05519   0.08430   0.09230
 Alpha virt. eigenvalues --    0.09815   0.09965   0.11392   0.13333   0.14596

 Mulliken charges:
               1
     1  C   -0.436212
     2  C   -0.055914
     3  C   -0.102832
     4  C    0.090891
     5  C    0.154324
     6  C   -0.468373
     7  S   -0.296175
     8  S    0.047099
     9  C    0.024855
    10  C   -0.168056
    11  C    0.200954
    12  S   -0.302571
    13  S   -0.069003
    14  H    0.134402
    15  H    0.120894
    16  H    0.136910
    17  H    0.123602
    18  H    0.092011
    19  H    0.132225
    20  H    0.139631
    21  H    0.149323
    22  H    0.193517
    23  H    0.158500
 Sum of Mulliken charges =  -0.00000

 Dipole moment (field-independent basis, Debye):
    X=              2.0901    Y=              1.7067    Z=             -3.2691  Tot=              4.2389
 Quadrupole moment (field-independent basis, Debye-Ang):
   XX=           -109.2048   YY=            -96.1705   ZZ=           -108.0131
   XY=             -7.3117   XZ=             -0.0259   YZ=              3.2432

  Exact polarizability: 269.380   8.275 191.624   9.069   8.456 139.273
 Approx polarizability: 590.568  37.422 316.384  62.792  49.094 317.665

                      1                      2                      3
                      A                      A                      A
 Frequencies --     43.1218                51.8808                83.2707
 Red. masses --      8.8791                 5.0988                 3.1236
 Frc consts  --      0.0097                 0.0081                 0.0128
 IR Inten    --      1.4783                 0.5793                 0.8208

                      4                      5                      6
                      A                      A                      A
 Frequencies --     95.9631               109.0959               123.7471
 Red. masses --      1.4033                 1.8190                 4.6487
 Frc consts  --      0.0076                 0.0128                 0.0419
 IR Inten    --      1.7674                 0.7109                 4.3516

                      7                      8                      9
                      A                      A                      A
 Frequencies --    151.4658               158.1416               178.9590
 Red. masses --      4.5499                 2.7128                 5.5269
 Frc consts  --      0.0615                 0.0400                 0.1043
 IR Inten    --      0.1024                 3.6114                14.2814

                     10                     11                     12
                      A                      A                      A
 Frequencies --    200.4116               213.1559               231.2037
 Red. masses --      9.8465                 1.4376                 7.4634
 Frc consts  --      0.2330                 0.0385                 0.2351
 IR Inten    --      0.2640                 4.0527                46.6772

                     13                     14                     15
                      A                      A                      A
 Frequencies --    270.2335               278.5644               326.3422
 Red. masses --     10.2503                 6.1830                 4.8171
 Frc consts  --      0.4410                 0.2827                 0.3023
 IR Inten    --      0.8907                 1.5543                 5.6376

                     16                     17                     18
                      A                      A                      A
 Frequencies --    350.5720               365.4640               378.2034
 Red. masses --      5.2963                 2.8127                 5.5049
 Frc consts  --      0.3835                 0.2213                 0.4639
 IR Inten    --      9.8556                 1.1238                 0.7714

                     19                     20                     21
                      A                      A                      A
 Frequencies --    418.4254               446.3113               485.3402
 Red. masses --      3.2601                 5.3018                 5.8318
 Frc consts  --      0.3363                 0.6222                 0.8094
 IR Inten    --     22.9631                10.1789                 2.5755

                     22                     23                     24
                      A                      A                      A
 Frequencies --    534.5929               588.2517               626.9559
 Red. masses --      6.3074                 3.5669                 1.8200
 Frc consts  --      1.0621                 0.7272                 0.4215
 IR Inten    --     18.6387                25.3647                10.7025

                     25                     26                     27
                      A                      A                      A
 Frequencies --    633.6832               654.6886               768.6581
 Red. masses --      5.2604                 4.2546                 3.8216
 Frc consts  --      1.2446                 1.0744                 1.3303
 IR Inten    --     36.3236                 7.0225                 2.4230

                     28                     29                     30
                      A                      A                      A
 Frequencies --    804.8750               836.6731               866.8165
 Red. masses --      6.9150                 1.6926                 1.3758
 Frc consts  --      2.6394                 0.6981                 0.6091
 IR Inten    --     22.5647                 0.6643                30.5328

                     31                     32                     33
                      A                      A                      A
 Frequencies --    945.1626               968.6086              1004.4057
 Red. masses --      1.6369                 1.3050                 1.1518
 Frc consts  --      0.8615                 0.7214                 0.6846
 IR Inten    --     18.1789                 9.3330                22.2636

                     34                     35                     36
                      A                      A                      A
 Frequencies --   1009.2684              1018.7606              1041.0644
 Red. masses --      2.2570                 4.6344                 1.4711
 Frc consts  --      1.3545                 2.8339                 0.9394
 IR Inten    --     46.5348                63.6399                 5.9666

                     37                     38                     39
                      A                      A                      A
 Frequencies --   1063.6203              1105.1502              1122.3053
 Red. masses --      1.5602                 2.3215                 5.4455
 Frc consts  --      1.0399                 1.6706                 4.0412
 IR Inten    --      0.3333                33.9465                82.6550

                     40                     41                     42
                      A                      A                      A
 Frequencies --   1124.5630              1194.8531              1285.6077
 Red. masses --      2.8418                 4.7152                 1.2316
 Frc consts  --      2.1175                 3.9662                 1.1994
 IR Inten    --      7.0417                 2.5592                16.8080

                     43                     44                     45
                      A                      A                      A
 Frequencies --   1314.0197              1344.8605              1404.9264
 Red. masses --      1.2904                 1.2908                 1.2061
 Frc consts  --      1.3127                 1.3755                 1.4026
 IR Inten    --      3.6885                 4.7115                 1.3979

                     46                     47                     48
                      A                      A                      A
 Frequencies --   1409.5301              1466.2477              1475.4642
 Red. masses --      1.2478                 1.1758                 1.0450
 Frc consts  --      1.4607                 1.4893                 1.3404
 IR Inten    --      3.0945                13.8009                 5.7045

                     49                     50                     51
                      A                      A                      A
 Frequencies --   1486.8654              1490.4200              1536.1125
 Red. masses --      1.0629                 1.0622                 4.1843
 Frc consts  --      1.3844                 1.3902                 5.8173
 IR Inten    --     12.4889                 8.0944                 0.6848

                     52                     53                     54
                      A                      A                      A
 Frequencies --   1689.6854              1717.4562              2572.8899
 Red. masses --      5.4611                10.3084                 1.0396
 Frc consts  --      9.1864                17.9148                 4.0547
 IR Inten    --     23.1914                12.2169                 8.1678

                     55                     56                     57
                      A                      A                      A
 Frequencies --   3017.5305              3026.3483              3063.6615
 Red. masses --      1.0372                 1.0442                 1.0981
 Frc consts  --      5.5644                 5.6345                 6.0727
 IR Inten    --     32.2252                15.0794                13.3789

                     58                     59                     60
                      A                      A                      A
 Frequencies --   3097.8814              3107.5047              3128.7636
 Red. masses --      1.0896                 1.0996                 1.1019
 Frc consts  --      6.1607                 6.2564                 6.3553
 IR Inten    --     10.6685                12.8538                 4.3502

                     61                     62                     63
                      A                      A                      A
 Frequencies --   3148.7338              3157.1019              3174.9673
 Red. masses --      1.0861                 1.0872                 1.0874
 Frc consts  --      6.3443                 6.3847                 6.4580
 IR Inten    --      0.3247                16.6821                 9.7116

 - Thermochemistry -
 -------------------
 Temperature   298.150 Kelvin.  Pressure   1.00000 Atm.
 Atom     1 has atomic number  6 and mass  12.00000

 Molecular mass:   245.96654 amu.
 Principal axes and moments of inertia in atomic units:
                           1         2         3
     Eigenvalues --  3241.701674082.866065777.91913
           X            0.99867  -0.04992   0.01299
           Y            0.05011   0.99864  -0.01465
           Z           -0.01224   0.01528   0.99981
 This molecule is an asymmetric top.
 Rotational symmetry number  1.
 Warning -- assumption of classical behavior for rotation
           may cause significant error
 Rotational temperatures (Kelvin)      0.02672     0.02121     0.01499
 Rotational constants (GHZ):           0.55673     0.44203     0.31235
 Zero-point vibrational energy     424611.0 (Joules/Mol)
                                  101.48446 (Kcal/Mol)
 Warning -- explicit consideration of  23 degrees of freedom as
           vibrations may cause significant error
 Vibrational temperatures:     62.04    74.64   119.81   138.07   156.96
          (Kelvin)            178.04   217.93   227.53   257.48   288.35
                              306.68   332.65   388.81   400.79   469.53
                              504.39   525.82   544.15   602.02   642.14
                              698.30   769.16   846.36   902.05   911.73
                              941.95  1105.93  1158.04  1203.79  1247.16
                             1359.88  1393.61  1445.12  1452.11  1465.77
                             1497.86  1530.31  1590.06  1614.75  1618.00
                             1719.13  1849.70  1890.58  1934.95  2021.38
                             2028.00  2109.60  2122.86  2139.27  2144.38
                             2210.12  2431.08  2471.04  3701.81  4341.55
                             4354.24  4407.93  4457.16  4471.01  4501.59
                             4530.33  4542.37  4568.07

 Zero-point correction=                           0.161726 (Hartree/Particle)
 Thermal correction to Energy=                    0.177257
 Thermal correction to Enthalpy=                  0.178201
 Thermal correction to Gibbs Free Energy=         0.118159
 Sum of electronic and zero-point Energies=          -1941.464055
 Sum of electronic and thermal Energies=             -1941.448524
 Sum of electronic and thermal Enthalpies=           -1941.447580
 Sum of electronic and thermal Free Energies=        -1941.507622

                     E (Thermal)             CV                S
                      KCal/Mol        Cal/Mol-Kelvin    Cal/Mol-Kelvin
 Total                  111.230             54.865            126.368
 Electronic               0.000              0.000              0.000
 Translational            0.889              2.981             42.401
 Rotational               0.889              2.981             32.703
 Vibrational            109.453             48.903             51.264
 Vibration     1          0.595              1.980              5.110
 Vibration     2          0.596              1.977              4.744
 Vibration     3          0.600              1.961              3.812
 Vibration     4          0.603              1.952              3.535
 Vibration     5          0.606              1.942              3.285
 Vibration     6          0.610              1.929              3.041
 Vibration     7          0.619              1.901              2.654
 Vibration     8          0.621              1.894              2.572
 Vibration     9          0.629              1.868              2.339
 Vibration    10          0.638              1.839              2.129
 Vibration    11          0.644              1.821              2.016
 Vibration    12          0.653              1.793              1.870
 Vibration    13          0.674              1.728              1.595
 Vibration    14          0.679              1.713              1.542
 Vibration    15          0.710              1.623              1.278
 Vibration    16          0.727              1.574              1.164
 Vibration    17          0.739              1.543              1.099
 Vibration    18          0.748              1.517              1.046
 Vibration    19          0.781              1.430              0.897
 Vibration    20          0.806              1.369              0.807
 Vibration    21          0.841              1.283              0.696
 Vibration    22          0.890              1.174              0.577
 Vibration    23          0.945              1.057              0.470

                           ! Non-Optimized Parameters !
 Normal termination of Gaussian 16 at Tue May 16 21:28:36 2023.
