 Gaussian 16, Revision A.03,
 Gaussian 16:  ES64L-G16RevA.03 25-Dec-2016

 -----------------------------
 # opt freq b3lyp/6-31g(2df,p)
 -----------------------------

 -------------------
 Title Card Required
 -------------------
 Symbolic Z-matrix:
 Charge =  0 Multiplicity = 1

 SCF Done:  E(RB3LYP) =  -1579.42966492     A.U. after   16 cycles
 SCF Done:  E(RB3LYP) =  -1579.44043432     A.U. after   14 cycles
 SCF Done:  E(RB3LYP) =  -1579.44201845     A.U. after   14 cycles
 SCF Done:  E(RB3LYP) =  -1579.44162566     A.U. after   14 cycles
 SCF Done:  E(RB3LYP) =  -1579.44271564     A.U. after   12 cycles
 SCF Done:  E(RB3LYP) =  -1579.44275614     A.U. after   12 cycles
 SCF Done:  E(RB3LYP) =  -1579.44277529     A.U. after   11 cycles
 SCF Done:  E(RB3LYP) =  -1579.44278221     A.U. after    9 cycles
 SCF Done:  E(RB3LYP) =  -1579.44279176     A.U. after   10 cycles
 SCF Done:  E(RB3LYP) =  -1579.44279786     A.U. after   10 cycles
 SCF Done:  E(RB3LYP) =  -1579.44306836     A.U. after   12 cycles
 SCF Done:  E(RB3LYP) =  -1579.44305195     A.U. after   15 cycles
 SCF Done:  E(RB3LYP) =  -1579.44334029     A.U. after   12 cycles
 SCF Done:  E(RB3LYP) =  -1579.44324779     A.U. after   12 cycles
 SCF Done:  E(RB3LYP) =  -1579.44339540     A.U. after   12 cycles
 SCF Done:  E(RB3LYP) =  -1579.44339714     A.U. after    9 cycles
 SCF Done:  E(RB3LYP) =  -1579.44339816     A.U. after    9 cycles
 SCF Done:  E(RB3LYP) =  -1579.44339795     A.U. after    9 cycles
 SCF Done:  E(RB3LYP) =  -1579.44339944     A.U. after    9 cycles
 Optimization completed.
    -- Stationary point found.
 Normal termination of Gaussian 16 at Wed May 17 00:27:16 2023.

 ----------------------------------------------------------------------
 #N Geom=AllCheck Guess=TCheck SCRF=Check GenChk RB3LYP/6-31G(2df,p) Fr
 eq
 ----------------------------------------------------------------------

 Structure from the checkpoint file:  "CCdCqOrC1dCCdCCqdSrSS1.chk"
 -------------------
 Title Card Required
 -------------------
 Charge =  0 Multiplicity = 1

                         Standard orientation:
 ---------------------------------------------------------------------
 Center     Atomic      Atomic             Coordinates (Angstroms)
 Number     Number       Type             X           Y           Z
 ---------------------------------------------------------------------
      1          6           0        4.667061    0.409884    1.167394
      2          6           0        3.215322    0.611876    0.850076
      3          6           0        2.527208   -0.018395   -0.115918
      4          8           0        3.036038   -0.979562   -0.944180
      5          6           0        1.104178    0.231569   -0.391006
      6          6           0        0.563826    1.475360   -0.397167
      7          6           0       -0.774138    1.900276   -0.714442
      8          6           0       -2.010836    1.338310   -0.607611
      9          6           0       -2.474734    0.150990    0.078857
     10         16           0       -4.036612   -0.002731    0.597553
     11         16           0       -1.377747   -1.116971    0.603798
     12         16           0        0.130666   -1.194760   -0.830501
     13          1           0        5.168416    1.374110    1.308235
     14          1           0        5.209715   -0.113058    0.372217
     15          1           0        4.808419   -0.156428    2.097043
     16          1           0        2.664701    1.305001    1.475373
     17          1           0        3.865726   -1.311377   -0.585846
     18          1           0        1.263458    2.291801   -0.235087
     19          1           0       -0.797486    2.921670   -1.092421
     20          1           0       -2.839488    1.956933   -0.940764
 ---------------------------------------------------------------------

 SCF Done:  E(RB3LYP) =  -1579.44339944     A.U. after    1 cycles

 The electronic state is 1-A.
 Alpha  occ. eigenvalues --  -88.91684 -88.90872 -88.85393 -19.18462 -10.27605
 Alpha  occ. eigenvalues --  -10.26147 -10.24620 -10.22670 -10.21906 -10.21841
 Alpha  occ. eigenvalues --  -10.20568 -10.19839  -7.97847  -7.97050  -7.91922
 Alpha  occ. eigenvalues --   -5.94369  -5.93887  -5.93558  -5.93432  -5.93180
 Alpha  occ. eigenvalues --   -5.92563  -5.88259  -5.88132  -5.87470  -1.07404
 Alpha  occ. eigenvalues --   -0.87474  -0.83628  -0.80203  -0.79388  -0.74194
 Alpha  occ. eigenvalues --   -0.70598  -0.68489  -0.63544  -0.61655  -0.55432
 Alpha  occ. eigenvalues --   -0.52663  -0.51773  -0.50438  -0.46546  -0.44842
 Alpha  occ. eigenvalues --   -0.43396  -0.42018  -0.41309  -0.40274  -0.38961
 Alpha  occ. eigenvalues --   -0.38748  -0.38474  -0.37310  -0.35676  -0.34244
 Alpha  occ. eigenvalues --   -0.31304  -0.28503  -0.25351  -0.25038  -0.22711
 Alpha  occ. eigenvalues --   -0.21895
 Alpha virt. eigenvalues --   -0.11251  -0.03999  -0.02762   0.01941   0.04480
 Alpha virt. eigenvalues --    0.04813   0.06269   0.07107   0.08066   0.11439
 Alpha virt. eigenvalues --    0.11475   0.13558   0.15778   0.16065   0.17383

 Mulliken charges:
               1
     1  C   -0.463159
     2  C   -0.148648
     3  C    0.290365
     4  O   -0.420294
     5  C    0.100388
     6  C   -0.145340
     7  C   -0.037869
     8  C   -0.125249
     9  C    0.182719
    10  S   -0.302164
    11  S   -0.009638
    12  S   -0.090851
    13  H    0.141833
    14  H    0.112660
    15  H    0.142401
    16  H    0.105074
    17  H    0.302959
    18  H    0.114879
    19  H    0.118729
    20  H    0.131203
 Sum of Mulliken charges =  -0.00000

 Dipole moment (field-independent basis, Debye):
    X=              5.5453    Y=              2.1832    Z=              0.0758  Tot=              5.9600
 Quadrupole moment (field-independent basis, Debye-Ang):
   XX=            -88.3825   YY=            -86.5019   ZZ=            -92.9443
   XY=             -3.2859   XZ=              6.9024   YZ=             -1.3156

  Exact polarizability: 286.986  -0.244 129.108  -0.613  -2.532  99.774
 Approx polarizability: 525.122  -5.548 237.044 -26.453  -2.137 188.013

                      1                      2                      3
                      A                      A                      A
 Frequencies --     31.4428                63.1674                90.8739
 Red. masses --      7.4922                 5.5276                 2.3599
 Frc consts  --      0.0044                 0.0130                 0.0115
 IR Inten    --      0.8579                 0.6858                 1.2518

                      4                      5                      6
                      A                      A                      A
 Frequencies --    101.4699               126.7403               165.6231
 Red. masses --      1.6651                 3.6646                 5.4806
 Frc consts  --      0.0101                 0.0347                 0.0886
 IR Inten    --      0.2468                 0.9412                 0.4766

                      7                      8                      9
                      A                      A                      A
 Frequencies --    214.2316               224.0311               226.3694
 Red. masses --      5.9588                 5.4604                 7.9967
 Frc consts  --      0.1611                 0.1615                 0.2414
 IR Inten    --      0.8758                 4.5976                 1.9392

                     10                     11                     12
                      A                      A                      A
 Frequencies --    270.4981               300.0902               310.2728
 Red. masses --      5.6704                 3.4371                 2.1651
 Frc consts  --      0.2444                 0.1824                 0.1228
 IR Inten    --      5.5905                 5.1980                41.0088

                     13                     14                     15
                      A                      A                      A
 Frequencies --    370.2340               395.5301               432.8507
 Red. masses --      1.9925                 4.2322                 5.0090
 Frc consts  --      0.1609                 0.3901                 0.5529
 IR Inten    --     31.3055                 4.9105                20.7302

                     16                     17                     18
                      A                      A                      A
 Frequencies --    472.3241               516.6255               560.0655
 Red. masses --     12.6637                 7.9934                 8.0029
 Frc consts  --      1.6645                 1.2570                 1.4790
 IR Inten    --      1.7148                 2.9786                 0.8482

                     19                     20                     21
                      A                      A                      A
 Frequencies --    608.6713               631.1847               671.8535
 Red. masses --      4.7819                 5.3743                 4.6875
 Frc consts  --      1.0438                 1.2615                 1.2466
 IR Inten    --     15.0177                 1.5467                 5.7420

                     22                     23                     24
                      A                      A                      A
 Frequencies --    692.5388               760.2656               808.2480
 Red. masses --      3.7508                 3.7566                 1.4804
 Frc consts  --      1.0599                 1.2793                 0.5698
 IR Inten    --     14.4942                 5.5221                35.0327

                     25                     26                     27
                      A                      A                      A
 Frequencies --    808.9198               898.1580               936.3805
 Red. masses --      1.2134                 2.8760                 1.6468
 Frc consts  --      0.4678                 1.3669                 0.8508
 IR Inten    --     17.7136                 6.4198                59.6682

                     28                     29                     30
                      A                      A                      A
 Frequencies --    993.5416              1018.7906              1038.8645
 Red. masses --      3.5811                 1.3678                 1.8091
 Frc consts  --      2.0828                 0.8364                 1.1503
 IR Inten    --     13.9083                 7.5251                17.0867

                     31                     32                     33
                      A                      A                      A
 Frequencies --   1047.1228              1051.9757              1110.0775
 Red. masses --      2.1643                 2.5830                 3.4322
 Frc consts  --      1.3982                 1.6842                 2.4919
 IR Inten    --     47.1792                52.1468                20.0940

                     34                     35                     36
                      A                      A                      A
 Frequencies --   1162.7688              1199.3890              1319.7346
 Red. masses --      2.5831                 2.3262                 1.1739
 Frc consts  --      2.0577                 1.9716                 1.2046
 IR Inten    --    148.0422                89.2482                11.0251

                     37                     38                     39
                      A                      A                      A
 Frequencies --   1333.8142              1337.9659              1382.7347
 Red. masses --      1.3684                 1.3734                 1.8871
 Frc consts  --      1.4343                 1.4486                 2.1258
 IR Inten    --     20.9318                 7.7852                18.8416

                     40                     41                     42
                      A                      A                      A
 Frequencies --   1421.7622              1452.4939              1479.1256
 Red. masses --      1.3617                 1.5268                 1.0467
 Frc consts  --      1.6218                 1.8978                 1.3492
 IR Inten    --     11.9953                25.1009                 4.3444

                     43                     44                     45
                      A                      A                      A
 Frequencies --   1495.8218              1585.2648              1634.5783
 Red. masses --      1.0760                 7.7679                 5.0104
 Frc consts  --      1.4184                11.5016                 7.8874
 IR Inten    --      7.0148               143.3011                11.7620

                     46                     47                     48
                      A                      A                      A
 Frequencies --   1698.3203              3016.2410              3069.4623
 Red. masses --      6.7988                 1.0378                 1.0975
 Frc consts  --     11.5538                 5.5629                 6.0920
 IR Inten    --     62.8892                41.7053                16.0775

                     49                     50                     51
                      A                      A                      A
 Frequencies --   3087.4710              3129.7088              3157.4311
 Red. masses --      1.0998                 1.0837                 1.0867
 Frc consts  --      6.1771                 6.2542                 6.3832
 IR Inten    --     19.0825                 9.6596                12.8352

                     52                     53                     54
                      A                      A                      A
 Frequencies --   3171.9389              3197.4303              3824.1345
 Red. masses --      1.0893                 1.0886                 1.0653
 Frc consts  --      6.4574                 6.5572                 9.1791
 IR Inten    --      3.8272                 5.4038                44.7029

 - Thermochemistry -
 -------------------
 Temperature   298.150 Kelvin.  Pressure   1.00000 Atm.
 Atom     1 has atomic number  6 and mass  12.00000

 Molecular mass:   215.97373 amu.
 Principal axes and moments of inertia in atomic units:
                           1         2         3
     Eigenvalues --  1184.029945562.707325964.99292
           X            0.99984   0.00017   0.01764
           Y            0.00004   0.99993  -0.01187
           Z           -0.01764   0.01187   0.99977
 This molecule is an asymmetric top.
 Rotational symmetry number  1.
 Warning -- assumption of classical behavior for rotation
           may cause significant error
 Rotational temperatures (Kelvin)      0.07315     0.01557     0.01452
 Rotational constants (GHZ):           1.52424     0.32444     0.30256
 Zero-point vibrational energy     371480.1 (Joules/Mol)
                                   88.78588 (Kcal/Mol)
 Warning -- explicit consideration of  19 degrees of freedom as
           vibrations may cause significant error
 Vibrational temperatures:     45.24    90.88   130.75   145.99   182.35
          (Kelvin)            238.29   308.23   322.33   325.70   389.19
                              431.76   446.41   532.68   569.08   622.78
                              679.57   743.31   805.81   875.74   908.13
                              966.65   996.41  1093.85  1162.89  1163.86
                             1292.25  1347.24  1429.48  1465.81  1494.69
                             1506.58  1513.56  1597.15  1672.96  1725.65
                             1898.80  1919.06  1925.03  1989.45  2045.60
                             2089.81  2128.13  2152.15  2280.84  2351.79
                             2443.50  4339.70  4416.27  4442.18  4502.95
                             4542.84  4563.71  4600.39  5502.08

 Zero-point correction=                           0.141489 (Hartree/Particle)
 Thermal correction to Energy=                    0.154408
 Thermal correction to Enthalpy=                  0.155352
 Thermal correction to Gibbs Free Energy=         0.100802
 Sum of electronic and zero-point Energies=          -1579.301910
 Sum of electronic and thermal Energies=             -1579.288991
 Sum of electronic and thermal Enthalpies=           -1579.288047
 Sum of electronic and thermal Free Energies=        -1579.342598

                     E (Thermal)             CV                S
                      KCal/Mol        Cal/Mol-Kelvin    Cal/Mol-Kelvin
 Total                   96.892             46.253            114.811
 Electronic               0.000              0.000              0.000
 Translational            0.889              2.981             42.013
 Rotational               0.889              2.981             32.041
 Vibrational             95.115             40.292             40.757
 Vibration     1          0.594              1.983              5.736
 Vibration     2          0.597              1.972              4.356
 Vibration     3          0.602              1.956              3.641
 Vibration     4          0.604              1.948              3.426
 Vibration     5          0.611              1.926              2.995
 Vibration     6          0.624              1.885              2.485
 Vibration     7          0.644              1.819              2.007
 Vibration     8          0.649              1.804              1.926
 Vibration     9          0.650              1.801              1.908
 Vibration    10          0.674              1.728              1.593
 Vibration    11          0.693              1.674              1.416
 Vibration    12          0.699              1.654              1.361
 Vibration    13          0.742              1.533              1.079
 Vibration    14          0.762              1.480              0.979
 Vibration    15          0.794              1.399              0.849
 Vibration    16          0.829              1.311              0.731
 Vibration    17          0.872              1.213              0.618
 Vibration    18          0.916              1.118              0.524
 Vibration    19          0.968              1.013              0.435

 Optimization completed.
    -- Stationary point found.
 Normal termination of Gaussian 16 at Wed May 17 01:12:41 2023.
