 Gaussian 16, Revision A.03,
 Gaussian 16:  ES64L-G16RevA.03 25-Dec-2016

 -----------------------------
 # opt freq b3lyp/6-31g(2df,p)
 -----------------------------

 -------------------
 Title Card Required
 -------------------
 Symbolic Z-matrix:
 Charge =  0 Multiplicity = 1

 SCF Done:  E(RB3LYP) =  -928.990620082     A.U. after   27 cycles
 SCF Done:  E(RB3LYP) =  -929.030738251     A.U. after   15 cycles
 SCF Done:  E(RB3LYP) =  -929.068931386     A.U. after   15 cycles
 SCF Done:  E(RB3LYP) =  -929.081814511     A.U. after   15 cycles
 SCF Done:  E(RB3LYP) =  -929.091792131     A.U. after   15 cycles
 SCF Done:  E(RB3LYP) =  -929.097093675     A.U. after   15 cycles
 SCF Done:  E(RB3LYP) =  -929.099639022     A.U. after   14 cycles
 SCF Done:  E(RB3LYP) =  -929.100555832     A.U. after   13 cycles
 SCF Done:  E(RB3LYP) =  -929.101230503     A.U. after   13 cycles
 SCF Done:  E(RB3LYP) =  -929.101739876     A.U. after   14 cycles
 SCF Done:  E(RB3LYP) =  -929.123118701     A.U. after   10 cycles
 SCF Done:  E(RB3LYP) =  -929.123122175     A.U. after    9 cycles
 SCF Done:  E(RB3LYP) =  -929.123125514     A.U. after   10 cycles
 SCF Done:  E(RB3LYP) =  -929.123126740     A.U. after    9 cycles
 SCF Done:  E(RB3LYP) =  -929.123127738     A.U. after    9 cycles
 SCF Done:  E(RB3LYP) =  -929.123128256     A.U. after    8 cycles
 SCF Done:  E(RB3LYP) =  -929.123128445     A.U. after    8 cycles
 SCF Done:  E(RB3LYP) =  -929.123128532     A.U. after    7 cycles
 SCF Done:  E(RB3LYP) =  -929.123128564     A.U. after    7 cycles
 Optimization completed.
    -- Stationary point found.
 Normal termination of Gaussian 16 at Sat May 20 13:15:00 2023.

 ----------------------------------------------------------------------
 #N Geom=AllCheck Guess=TCheck SCRF=Check GenChk RB3LYP/6-31G(2df,p) Fr
 eq
 ----------------------------------------------------------------------

 Structure from the checkpoint file:  "CCdCNC1dC[SH]dCqNrCdCNdN1.chk"
 -------------------
 Title Card Required
 -------------------
 Charge =  0 Multiplicity = 1

                         Standard orientation:
 ---------------------------------------------------------------------
 Center     Atomic      Atomic             Coordinates (Angstroms)
 Number     Number       Type             X           Y           Z
 ---------------------------------------------------------------------
      1          6           0       -4.953184   -0.627002    0.982611
      2          6           0       -3.893402    0.195388    0.312550
      3          6           0       -2.654921   -0.242379    0.065469
      4          7           0       -1.643334    0.501231   -0.522037
      5          6           0       -0.388384    0.064315   -0.897249
      6          6           0        0.007867   -1.306741   -0.795841
      7         16           0        1.634180   -1.521523   -0.489892
      8          6           0        2.390100   -0.190030    0.644349
      9          7           0        3.511844   -0.829056    1.152176
     10          6           0        2.125448    1.112796    0.923545
     11          6           0        1.305810    2.186622    0.367791
     12          7           0        0.529673    2.150403   -0.663470
     13          7           0        0.579567    0.879398   -1.204205
     14          1           0       -5.842352   -0.739543    0.348521
     15          1           0       -5.295680   -0.168252    1.919630
     16          1           0       -4.587033   -1.630797    1.221285
     17          1           0       -4.164475    1.209178    0.021488
     18          1           0       -2.358496   -1.248570    0.343216
     19          1           0       -1.791376    1.491860   -0.651533
     20          1           0       -0.609311   -2.175036   -0.635468
     21          1           0        2.376987   -1.046362   -1.533253
     22          1           0        4.116828   -0.266536    1.735439
     23          1           0        3.391777   -1.774706    1.489855
     24          1           0        2.747975    1.475738    1.745944
     25          1           0        1.388015    3.145735    0.876551
 ---------------------------------------------------------------------

 SCF Done:  E(RB3LYP) =  -929.123128564     A.U. after    1 cycles

 The electronic state is 1-A.
 Alpha  occ. eigenvalues --  -88.95993 -14.36664 -14.34720 -14.33041 -14.29259
 Alpha  occ. eigenvalues --  -10.26488 -10.24247 -10.20638 -10.20572 -10.19195
 Alpha  occ. eigenvalues --  -10.17505 -10.17395 -10.16464  -8.01537  -5.97856
 Alpha  occ. eigenvalues --   -5.97759  -5.97368  -0.98374  -0.94401  -0.92457
 Alpha  occ. eigenvalues --   -0.84505  -0.80152  -0.76431  -0.74091  -0.69056
 Alpha  occ. eigenvalues --   -0.67006  -0.61390  -0.59144  -0.57258  -0.54169
 Alpha  occ. eigenvalues --   -0.53567  -0.51069  -0.49299  -0.46453  -0.45748
 Alpha  occ. eigenvalues --   -0.43531  -0.42269  -0.40690  -0.40177  -0.39774
 Alpha  occ. eigenvalues --   -0.38310  -0.37790  -0.36063  -0.34806  -0.34672
 Alpha  occ. eigenvalues --   -0.32807  -0.30869  -0.27183  -0.23827  -0.20554
 Alpha  occ. eigenvalues --   -0.19361  -0.16961
 Alpha virt. eigenvalues --   -0.03924  -0.00366   0.02640   0.04035   0.05630
 Alpha virt. eigenvalues --    0.07750   0.08585   0.10071   0.10793   0.12343
 Alpha virt. eigenvalues --    0.12595   0.14279   0.14718   0.15768   0.17905

 Mulliken charges:
               1
     1  C   -0.412812
     2  C   -0.146693
     3  C    0.083128
     4  N   -0.380254
     5  C    0.417826
     6  C   -0.307262
     7  S    0.033168
     8  C    0.159321
     9  N   -0.529796
    10  C   -0.117735
    11  C    0.011423
    12  N   -0.221372
    13  N   -0.347981
    14  H    0.119489
    15  H    0.118651
    16  H    0.111327
    17  H    0.070101
    18  H    0.100889
    19  H    0.260572
    20  H    0.112627
    21  H    0.170337
    22  H    0.257429
    23  H    0.265501
    24  H    0.077654
    25  H    0.094459
 Sum of Mulliken charges =  -0.00000

 Dipole moment (field-independent basis, Debye):
    X=              2.4120    Y=             -2.3501    Z=              3.4220  Tot=              4.8012
 Quadrupole moment (field-independent basis, Debye-Ang):
   XX=            -70.3433   YY=            -82.7071   ZZ=            -83.9171
   XY=             -4.0521   XZ=              7.8295   YZ=              1.8819

  Exact polarizability: 208.664  -7.327 140.520   7.375   3.474  96.857
 Approx polarizability: 297.766 -28.905 252.054  19.160  -4.984 173.043

                      1                      2                      3
                      A                      A                      A
 Frequencies --     28.3873                68.1320                82.4657
 Red. masses --      4.3447                 3.9690                 1.8468
 Frc consts  --      0.0021                 0.0109                 0.0074
 IR Inten    --      1.7598                 1.1177                 0.6277

                      4                      5                      6
                      A                      A                      A
 Frequencies --     97.1643               111.8969               179.3763
 Red. masses --      4.3600                 3.6559                 4.5693
 Frc consts  --      0.0243                 0.0270                 0.0866
 IR Inten    --      0.6300                 0.9540                 4.2369

                      7                      8                      9
                      A                      A                      A
 Frequencies --    202.3885               229.0383               243.5421
 Red. masses --      1.3737                 5.8556                 4.4031
 Frc consts  --      0.0332                 0.1810                 0.1539
 IR Inten    --      1.3568                 2.7353                 2.2379

                     10                     11                     12
                      A                      A                      A
 Frequencies --    285.7964               296.4767               320.0870
 Red. masses --      4.3105                 2.7193                 5.1103
 Frc consts  --      0.2074                 0.1408                 0.3085
 IR Inten    --     11.4723                 2.5525                 2.6344

                     13                     14                     15
                      A                      A                      A
 Frequencies --    344.0045               379.6836               427.7747
 Red. masses --      2.3663                 1.8804                 3.3427
 Frc consts  --      0.1650                 0.1597                 0.3604
 IR Inten    --     19.6448                16.5103                 3.5036

                     16                     17                     18
                      A                      A                      A
 Frequencies --    461.6274               469.8455               506.2662
 Red. masses --      1.2011                 2.9357                 2.9006
 Frc consts  --      0.1508                 0.3818                 0.4380
 IR Inten    --     99.9088                21.8223                31.0253

                     19                     20                     21
                      A                      A                      A
 Frequencies --    530.3675               542.3894               572.4179
 Red. masses --      3.1788                 3.0608                 1.3435
 Frc consts  --      0.5268                 0.5305                 0.2594
 IR Inten    --     29.5640                62.3810                41.3427

                     22                     23                     24
                      A                      A                      A
 Frequencies --    588.9069               624.8978               668.8248
 Red. masses --      1.7158                 4.6234                 4.2999
 Frc consts  --      0.3506                 1.0637                 1.1333
 IR Inten    --    147.9784                 8.1426                27.8582

                     25                     26                     27
                      A                      A                      A
 Frequencies --    711.6623               779.5488               804.4512
 Red. masses --      5.6857                 1.5057                 1.6505
 Frc consts  --      1.6966                 0.5391                 0.6293
 IR Inten    --     14.8868                 9.2050                 5.7595

                     28                     29                     30
                      A                      A                      A
 Frequencies --    834.8139               848.4929               896.0345
 Red. masses --      3.3186                 1.7287                 4.1312
 Frc consts  --      1.3626                 0.7333                 1.9542
 IR Inten    --     23.3206                11.6434                13.6535

                     31                     32                     33
                      A                      A                      A
 Frequencies --    939.8429               951.0394               952.0954
 Red. masses --      1.7423                 1.5588                 2.1006
 Frc consts  --      0.9068                 0.8307                 1.1219
 IR Inten    --     32.5066                 4.3409                 6.2584

                     34                     35                     36
                      A                      A                      A
 Frequencies --    967.3295               982.2560              1052.0536
 Red. masses --      2.2203                 1.1487                 1.7680
 Frc consts  --      1.2241                 0.6530                 1.1529
 IR Inten    --     44.4426                36.0386                26.7256

                     37                     38                     39
                      A                      A                      A
 Frequencies --   1061.9974              1077.9214              1120.9698
 Red. masses --      1.4350                 2.3498                 2.2372
 Frc consts  --      0.9536                 1.6086                 1.6563
 IR Inten    --      0.6783                35.9286                 8.2580

                     40                     41                     42
                      A                      A                      A
 Frequencies --   1169.3411              1215.3135              1225.7688
 Red. masses --      1.5345                 3.7914                 1.5579
 Frc consts  --      1.2362                 3.2993                 1.3792
 IR Inten    --      1.8770                71.9503                 0.1272

                     43                     44                     45
                      A                      A                      A
 Frequencies --   1261.5625              1298.0224              1341.8649
 Red. masses --      2.7554                 1.3091                 1.2370
 Frc consts  --      2.5838                 1.2996                 1.3124
 IR Inten    --    179.8164                10.9261                 9.1161

                     46                     47                     48
                      A                      A                      A
 Frequencies --   1358.4334              1386.4763              1412.2088
 Red. masses --      1.3307                 1.3237                 1.3387
 Frc consts  --      1.4468                 1.4993                 1.5730
 IR Inten    --      5.3899                 4.1960               128.0811

                     49                     50                     51
                      A                      A                      A
 Frequencies --   1444.2267              1461.6716              1477.6044
 Red. masses --      3.9244                 1.7336                 1.0446
 Frc consts  --      4.8227                 2.1822                 1.3437
 IR Inten    --    350.1876                 5.6230                 3.5142

                     52                     53                     54
                      A                      A                      A
 Frequencies --   1503.3388              1589.3676              1616.1443
 Red. masses --      1.1042                 6.2653                 4.8544
 Frc consts  --      1.4703                 9.3248                 7.4705
 IR Inten    --      2.2516               153.0231               210.0581

                     55                     56                     57
                      A                      A                      A
 Frequencies --   1630.3695              1648.0104              1745.6876
 Red. masses --      1.9939                 1.9509                 5.2729
 Frc consts  --      3.1227                 3.1217                 9.4675
 IR Inten    --    102.8952               121.9479               212.4780

                     58                     59                     60
                      A                      A                      A
 Frequencies --   2436.7716              3007.5974              3048.5048
 Red. masses --      1.0395                 1.0375                 1.0994
 Frc consts  --      3.6366                 5.5292                 6.0196
 IR Inten    --     59.8125                77.5924                29.2161

                     61                     62                     63
                      A                      A                      A
 Frequencies --   3078.1363              3092.1125              3134.7404
 Red. masses --      1.0822                 1.0975                 1.0889
 Frc consts  --      6.0411                 6.1826                 6.3045
 IR Inten    --     38.0919                19.1562                23.5561

                     64                     65                     66
                      A                      A                      A
 Frequencies --   3145.2146              3188.8319              3259.2263
 Red. masses --      1.0886                 1.0881                 1.0898
 Frc consts  --      6.3448                 6.5190                 6.8205
 IR Inten    --     41.0303                11.5907                 2.2061

                     67                     68                     69
                      A                      A                      A
 Frequencies --   3530.7119              3607.8224              3640.2379
 Red. masses --      1.0451                 1.0750                 1.0999
 Frc consts  --      7.6761                 8.2440                 8.5875
 IR Inten    --     17.6132                28.0807                 9.6352

 - Thermochemistry -
 -------------------
 Temperature   298.150 Kelvin.  Pressure   1.00000 Atm.
 Atom     1 has atomic number  6 and mass  12.00000

 Molecular mass:   196.07827 amu.
 Principal axes and moments of inertia in atomic units:
                           1         2         3
     Eigenvalues --  1473.317834590.429145199.63621
           X            0.99995   0.00924  -0.00278
           Y           -0.00922   0.99993   0.00706
           Z            0.00285  -0.00704   0.99997
 This molecule is an asymmetric top.
 Rotational symmetry number  1.
 Warning -- assumption of classical behavior for rotation
           may cause significant error
 Rotational temperatures (Kelvin)      0.05879     0.01887     0.01666
 Rotational constants (GHZ):           1.22495     0.39315     0.34709
 Zero-point vibrational energy     515576.1 (Joules/Mol)
                                  123.22564 (Kcal/Mol)
 Warning -- explicit consideration of  22 degrees of freedom as
           vibrations may cause significant error
 Vibrational temperatures:     40.84    98.03   118.65   139.80   160.99
          (Kelvin)            258.08   291.19   329.54   350.40   411.20
                              426.56   460.53   494.95   546.28   615.47
                              664.18   676.00   728.40   763.08   780.38
                              823.58   847.31   899.09   962.29  1023.92
                             1121.60  1157.43  1201.11  1220.79  1289.19
                             1352.22  1368.33  1369.85  1391.77  1413.25
                             1513.67  1527.98  1550.89  1612.83  1682.42
                             1748.57  1763.61  1815.11  1867.56  1930.64
                             1954.48  1994.83  2031.85  2077.92  2103.02
                             2125.94  2162.97  2286.75  2325.27  2345.74
                             2371.12  2511.66  3505.97  4327.26  4386.12
                             4428.75  4448.86  4510.19  4525.26  4588.02
                             4689.30  5079.91  5190.85  5237.49

 Zero-point correction=                           0.196373 (Hartree/Particle)
 Thermal correction to Energy=                    0.210167
 Thermal correction to Enthalpy=                  0.211112
 Thermal correction to Gibbs Free Energy=         0.155409
 Sum of electronic and zero-point Energies=           -928.926756
 Sum of electronic and thermal Energies=              -928.912961
 Sum of electronic and thermal Enthalpies=            -928.912017
 Sum of electronic and thermal Free Energies=         -928.967720

                     E (Thermal)             CV                S
                      KCal/Mol        Cal/Mol-Kelvin    Cal/Mol-Kelvin
 Total                  131.882             51.897            117.236
 Electronic               0.000              0.000              0.000
 Translational            0.889              2.981             41.725
 Rotational               0.889              2.981             31.931
 Vibrational            130.105             45.936             43.580
 Vibration     1          0.593              1.984              5.939
 Vibration     2          0.598              1.969              4.207
 Vibration     3          0.600              1.961              3.831
 Vibration     4          0.603              1.951              3.510
 Vibration     5          0.607              1.940              3.236
 Vibration     6          0.629              1.868              2.335
 Vibration     7          0.639              1.837              2.111
 Vibration     8          0.652              1.797              1.886
 Vibration     9          0.659              1.773              1.777
 Vibration    10          0.684              1.700              1.499
 Vibration    11          0.690              1.680              1.437
 Vibration    12          0.706              1.635              1.310
 Vibration    13          0.723              1.587              1.194
 Vibration    14          0.750              1.513              1.040
 Vibration    15          0.789              1.410              0.866
 Vibration    16          0.819              1.335              0.761
 Vibration    17          0.827              1.317              0.738
 Vibration    18          0.861              1.236              0.643
 Vibration    19          0.885              1.183              0.586
 Vibration    20          0.897              1.156              0.560
 Vibration    21          0.929              1.091              0.500
 Vibration    22          0.946              1.055              0.469

                           ! Non-Optimized Parameters !
 Normal termination of Gaussian 16 at Sat May 20 14:23:54 2023.
