 Gaussian 16, Revision A.03,
 Gaussian 16:  ES64L-G16RevA.03 25-Dec-2016

 -----------------------------
 # opt freq b3lyp/6-31g(2df,p)
 -----------------------------

 -------------------
 Title Card Required
 -------------------
 Symbolic Z-matrix:
 Charge =  0 Multiplicity = 1

 SCF Done:  E(RB3LYP) =  -1298.81817074     A.U. after   22 cycles
 SCF Done:  E(RB3LYP) =  -1298.84753168     A.U. after   14 cycles
 SCF Done:  E(RB3LYP) =  -1298.86237976     A.U. after   14 cycles
 SCF Done:  E(RB3LYP) =  -1298.86607733     A.U. after   14 cycles
 SCF Done:  E(RB3LYP) =  -1298.86798451     A.U. after   14 cycles
 SCF Done:  E(RB3LYP) =  -1298.87301666     A.U. after   13 cycles
 SCF Done:  E(RB3LYP) =  -1298.87861073     A.U. after   15 cycles
 SCF Done:  E(RB3LYP) =  -1298.88094318     A.U. after   13 cycles
 SCF Done:  E(RB3LYP) =  -1298.88246495     A.U. after   12 cycles
 SCF Done:  E(RB3LYP) =  -1298.88319618     A.U. after   12 cycles
 SCF Done:  E(RB3LYP) =  -1298.88733082     A.U. after    9 cycles
 SCF Done:  E(RB3LYP) =  -1298.88733478     A.U. after   11 cycles
 SCF Done:  E(RB3LYP) =  -1298.88733809     A.U. after   11 cycles
 SCF Done:  E(RB3LYP) =  -1298.88734872     A.U. after    9 cycles
 SCF Done:  E(RB3LYP) =  -1298.88735262     A.U. after   11 cycles
 SCF Done:  E(RB3LYP) =  -1298.88735297     A.U. after   10 cycles
 SCF Done:  E(RB3LYP) =  -1298.88735305     A.U. after    8 cycles
 SCF Done:  E(RB3LYP) =  -1298.88735308     A.U. after    8 cycles
 SCF Done:  E(RB3LYP) =  -1298.88735308     A.U. after    7 cycles
 Optimization completed.
    -- Stationary point found.
 Normal termination of Gaussian 16 at Wed May 17 19:32:51 2023.

 ----------------------------------------------------------------------
 #N Geom=AllCheck Guess=TCheck SCRF=Check GenChk RB3LYP/6-31G(2df,p) Fr
 eq
 ----------------------------------------------------------------------

 Structure from the checkpoint file:  "CCdCCqCrCCqdSrCC[SH]dNNC.chk"
 -------------------
 Title Card Required
 -------------------
 Charge =  0 Multiplicity = 1

                         Standard orientation:
 ---------------------------------------------------------------------
 Center     Atomic      Atomic             Coordinates (Angstroms)
 Number     Number       Type             X           Y           Z
 ---------------------------------------------------------------------
      1          6           0       -6.802185   -0.793290   -0.441607
      2          6           0       -5.508197   -0.235782    0.071616
      3          6           0       -4.313674   -0.806448   -0.068108
      4          6           0       -3.017363   -0.247684    0.455305
      5          6           0       -2.339956   -1.240237    1.414760
      6          6           0       -2.091121    0.132118   -0.740052
      7          6           0       -0.796711    0.798408   -0.323479
      8         16           0       -0.767716    2.294439    0.326395
      9          6           0        0.444542   -0.034566   -0.561795
     10          6           0        1.768583    0.550155   -0.094644
     11         16           0        3.180123   -0.612412   -0.421477
     12          7           0        4.570036    0.215500   -0.410658
     13          7           0        5.340401   -0.333452    0.700962
     14          6           0        6.618052   -0.833370    0.201638
     15          1           0       -7.514991   -0.958080    0.375954
     16          1           0       -6.653990   -1.744989   -0.960154
     17          1           0       -7.284889   -0.096720   -1.138404
     18          1           0       -5.574782    0.714780    0.601541
     19          1           0       -4.239382   -1.759370   -0.596051
     20          1           0       -3.225832    0.680506    0.998545
     21          1           0       -2.085211   -2.175979    0.902421
     22          1           0       -3.010759   -1.489390    2.241618
     23          1           0       -1.422282   -0.824331    1.842920
     24          1           0       -2.644430    0.823168   -1.382274
     25          1           0       -1.878742   -0.771152   -1.326394
     26          1           0        0.477225   -0.244324   -1.643483
     27          1           0        0.269446   -1.017897   -0.099212
     28          1           0        1.780039    0.718784    0.984360
     29          1           0        2.015264    1.492986   -0.587058
     30          1           0        2.867454   -0.688998   -1.750775
     31          1           0        5.528939    0.458686    1.310175
     32          1           0        6.454784   -1.766234   -0.348060
     33          1           0        7.272464   -1.047368    1.054443
     34          1           0        7.126278   -0.126682   -0.472738
 ---------------------------------------------------------------------

 SCF Done:  E(RB3LYP) =  -1298.88735308     A.U. after    1 cycles

 The electronic state is 1-A.
 Alpha  occ. eigenvalues --  -88.95664 -88.85872 -14.31952 -14.30019 -10.26895
 Alpha  occ. eigenvalues --  -10.22359 -10.21481 -10.20590 -10.20498 -10.18908
 Alpha  occ. eigenvalues --  -10.18577 -10.18563 -10.18411 -10.18034  -8.01019
 Alpha  occ. eigenvalues --   -7.92420  -5.97339  -5.97248  -5.96857  -5.88728
 Alpha  occ. eigenvalues --   -5.88693  -5.87940  -0.93748  -0.86107  -0.83479
 Alpha  occ. eigenvalues --   -0.81322  -0.77397  -0.75237  -0.70258  -0.69028
 Alpha  occ. eigenvalues --   -0.68339  -0.64318  -0.59997  -0.59253  -0.55720
 Alpha  occ. eigenvalues --   -0.52739  -0.49627  -0.48063  -0.46633  -0.46332
 Alpha  occ. eigenvalues --   -0.45129  -0.44126  -0.43322  -0.42259  -0.41930
 Alpha  occ. eigenvalues --   -0.41272  -0.40556  -0.39636  -0.38825  -0.38563
 Alpha  occ. eigenvalues --   -0.36935  -0.36250  -0.36156  -0.35777  -0.35454
 Alpha  occ. eigenvalues --   -0.33985  -0.33410  -0.29139  -0.27873  -0.25129
 Alpha  occ. eigenvalues --   -0.22652  -0.20096  -0.19035
 Alpha virt. eigenvalues --   -0.07998   0.01744   0.02248   0.03766   0.06089
 Alpha virt. eigenvalues --    0.07898   0.08998   0.10405   0.11039   0.11240
 Alpha virt. eigenvalues --    0.11599   0.12014   0.13134   0.14216   0.14701

 Mulliken charges:
               1
     1  C   -0.426763
     2  C   -0.046349
     3  C   -0.030716
     4  C   -0.022571
     5  C   -0.399068
     6  C   -0.269508
     7  C    0.276242
     8  S   -0.316061
     9  C   -0.292694
    10  C   -0.226894
    11  S    0.148475
    12  N   -0.330244
    13  N   -0.270272
    14  C   -0.277485
    15  H    0.127990
    16  H    0.119022
    17  H    0.127927
    18  H    0.086001
    19  H    0.074884
    20  H    0.105008
    21  H    0.111993
    22  H    0.126624
    23  H    0.121643
    24  H    0.141109
    25  H    0.097380
    26  H    0.134677
    27  H    0.145570
    28  H    0.151031
    29  H    0.160864
    30  H    0.114634
    31  H    0.222179
    32  H    0.112527
    33  H    0.101477
    34  H    0.101368
 Sum of Mulliken charges =  -0.00000

 Dipole moment (field-independent basis, Debye):
    X=             -3.3728    Y=             -2.1806    Z=             -0.9089  Tot=              4.1179
 Quadrupole moment (field-independent basis, Debye-Ang):
   XX=           -106.8031   YY=           -107.1204   ZZ=            -99.0237
   XY=              2.0707   XZ=              3.0710   YZ=              2.6076

  Exact polarizability: 254.583  -4.212 147.990   8.612  10.967 123.339
 Approx polarizability: 294.744  -4.646 254.831   7.686  30.583 206.105

                      1                      2                      3
                      A                      A                      A
 Frequencies --     15.7011                25.9066                31.3406
 Red. masses --      3.8847                 3.9427                 3.7129
 Frc consts  --      0.0006                 0.0016                 0.0021
 IR Inten    --      0.1558                 0.0826                 0.1845

                      4                      5                      6
                      A                      A                      A
 Frequencies --     38.9040                57.3002                67.9220
 Red. masses --      3.4648                 3.6139                 3.0524
 Frc consts  --      0.0031                 0.0070                 0.0083
 IR Inten    --      0.2229                 0.5024                 0.3652

                      7                      8                      9
                      A                      A                      A
 Frequencies --     80.4482               105.0289               118.0135
 Red. masses --      3.5728                 2.2228                 4.5423
 Frc consts  --      0.0136                 0.0144                 0.0373
 IR Inten    --      2.8918                 0.4614                 3.3200

                     10                     11                     12
                      A                      A                      A
 Frequencies --    138.8518               159.0228               193.7220
 Red. masses --      1.6940                 2.6831                 3.8208
 Frc consts  --      0.0192                 0.0400                 0.0845
 IR Inten    --      0.9759                 0.1765                 1.2490

                     13                     14                     15
                      A                      A                      A
 Frequencies --    213.7030               215.2193               220.0659
 Red. masses --      2.5590                 1.5402                 2.6220
 Frc consts  --      0.0689                 0.0420                 0.0748
 IR Inten    --      1.1480                 1.2967                 6.1821

                     16                     17                     18
                      A                      A                      A
 Frequencies --    235.7302               259.9039               295.1866
 Red. masses --      1.3381                 1.1324                 2.9860
 Frc consts  --      0.0438                 0.0451                 0.1533
 IR Inten    --      4.1740                 0.4795                 1.6020

                     19                     20                     21
                      A                      A                      A
 Frequencies --    376.6461               380.8856               388.5133
 Red. masses --      2.9925                 2.7880                 3.0014
 Frc consts  --      0.2501                 0.2383                 0.2669
 IR Inten    --      5.6595                 2.7921                11.2030

                     22                     23                     24
                      A                      A                      A
 Frequencies --    418.8289               441.5274               460.6372
 Red. masses --      4.2183                 2.5188                 2.7730
 Frc consts  --      0.4360                 0.2893                 0.3467
 IR Inten    --      0.9887                 2.1934                 1.9174

                     25                     26                     27
                      A                      A                      A
 Frequencies --    494.6301               573.4419               684.4757
 Red. masses --      3.7335                 2.8921                 2.5822
 Frc consts  --      0.5382                 0.5603                 0.7128
 IR Inten    --      4.1368                 4.0423                12.3246

                     28                     29                     30
                      A                      A                      A
 Frequencies --    713.4522               763.2798               774.1009
 Red. masses --      1.5770                 2.4258                 2.3472
 Frc consts  --      0.4729                 0.8327                 0.8287
 IR Inten    --      0.0053                 3.9461                10.8394

                     31                     32                     33
                      A                      A                      A
 Frequencies --    794.0693               820.0192               827.7045
 Red. masses --      3.3306                 1.7822                 1.8720
 Frc consts  --      1.2374                 0.7061                 0.7556
 IR Inten    --     83.0024                 0.3242                 7.2890

                     34                     35                     36
                      A                      A                      A
 Frequencies --    855.6945               886.6769               907.7614
 Red. masses --      2.0989                 1.5939                 1.6583
 Frc consts  --      0.9055                 0.7383                 0.8051
 IR Inten    --      1.1719                 3.9660                 1.9700

                     37                     38                     39
                      A                      A                      A
 Frequencies --    969.0859               977.5923               991.9193
 Red. masses --      1.5473                 1.5160                 1.6090
 Frc consts  --      0.8561                 0.8536                 0.9327
 IR Inten    --      5.2023                20.0833                12.2674

                     40                     41                     42
                      A                      A                      A
 Frequencies --   1013.7631              1021.3368              1062.5449
 Red. masses --      1.4611                 1.5268                 2.3460
 Frc consts  --      0.8847                 0.9384                 1.5606
 IR Inten    --     21.3147                18.4021                 6.4451

                     43                     44                     45
                      A                      A                      A
 Frequencies --   1067.4951              1069.8727              1079.6608
 Red. masses --      2.0657                 1.5437                 3.6671
 Frc consts  --      1.3869                 1.0411                 2.5185
 IR Inten    --      6.9713                 1.5890                 5.2512

                     46                     47                     48
                      A                      A                      A
 Frequencies --   1088.8078              1099.8365              1126.5836
 Red. masses --      2.0871                 1.8541                 2.0835
 Frc consts  --      1.4578                 1.3214                 1.5580
 IR Inten    --     56.7569                22.8876                13.6660

                     49                     50                     51
                      A                      A                      A
 Frequencies --   1144.1840              1162.0102              1174.6881
 Red. masses --      1.2729                 1.5384                 2.0389
 Frc consts  --      0.9818                 1.2239                 1.6576
 IR Inten    --      5.4518                 4.8063                 7.5531

                     52                     53                     54
                      A                      A                      A
 Frequencies --   1202.8479              1207.9422              1235.1042
 Red. masses --      1.7861                 1.5999                 1.3083
 Frc consts  --      1.5226                 1.3754                 1.1759
 IR Inten    --      9.5983                29.3813                25.5333

                     55                     56                     57
                      A                      A                      A
 Frequencies --   1260.7767              1282.1980              1298.3450
 Red. masses --      1.2237                 1.8916                 1.2474
 Frc consts  --      1.1461                 1.8322                 1.2389
 IR Inten    --      0.4903                46.6039                10.6522

                     58                     59                     60
                      A                      A                      A
 Frequencies --   1321.4925              1332.8960              1351.3308
 Red. masses --      1.3404                 1.2688                 1.3509
 Frc consts  --      1.3792                 1.3281                 1.4535
 IR Inten    --     15.0248                 0.3036                16.6543

                     61                     62                     63
                      A                      A                      A
 Frequencies --   1371.4856              1376.2760              1405.7648
 Red. masses --      1.4885                 1.3909                 1.2310
 Frc consts  --      1.6496                 1.5522                 1.4333
 IR Inten    --     18.2228                 1.7448                 4.2017

                     64                     65                     66
                      A                      A                      A
 Frequencies --   1412.5543              1441.3127              1444.2170
 Red. masses --      1.2642                 1.1815                 1.1043
 Frc consts  --      1.4863                 1.4461                 1.3571
 IR Inten    --      2.9535                 6.5477                 7.5255

                     67                     68                     69
                      A                      A                      A
 Frequencies --   1467.9500              1468.7274              1476.4944
 Red. masses --      1.1174                 1.1126                 1.0439
 Frc consts  --      1.4186                 1.4141                 1.3408
 IR Inten    --      0.9278                 5.0474                 3.9144

                     70                     71                     72
                      A                      A                      A
 Frequencies --   1478.9924              1479.6052              1491.3945
 Red. masses --      1.0884                 1.0557                 1.0513
 Frc consts  --      1.4027                 1.3617                 1.3777
 IR Inten    --      0.7139                 6.8376                 6.8554

                     73                     74                     75
                      A                      A                      A
 Frequencies --   1495.1729              1502.1860              1514.2382
 Red. masses --      1.0525                 1.0459                 1.0404
 Frc consts  --      1.3863                 1.3906                 1.4056
 IR Inten    --      1.5708                 7.1271                 4.7862

                     76                     77                     78
                      A                      A                      A
 Frequencies --   1742.7769              2452.4342              2980.2790
 Red. masses --      6.1807                 1.0375                 1.0458
 Frc consts  --     11.0604                 3.6764                 5.4730
 IR Inten    --      4.6502                74.3367               102.4289

                     79                     80                     81
                      A                      A                      A
 Frequencies --   2984.3258              3017.1161              3019.3189
 Red. masses --      1.0632                 1.0923                 1.0371
 Frc consts  --      5.5792                 5.8585                 5.5703
 IR Inten    --     12.1497                 7.6088                37.2636

                     82                     83                     84
                      A                      A                      A
 Frequencies --   3023.3158              3026.4409              3050.9183
 Red. masses --      1.0604                 1.0418                 1.0815
 Frc consts  --      5.7107                 5.6220                 5.9313
 IR Inten    --     18.1254                18.2055                 4.2782

                     85                     86                     87
                      A                      A                      A
 Frequencies --   3058.6138              3067.0082              3080.1918
 Red. masses --      1.0865                 1.0987                 1.0574
 Frc consts  --      5.9889                 6.0894                 5.9107
 IR Inten    --     43.9512                19.1514                 0.9633

                     88                     89                     90
                      A                      A                      A
 Frequencies --   3090.8838              3093.7041              3094.9370
 Red. masses --      1.0984                 1.1025                 1.0988
 Frc consts  --      6.1825                 6.2168                 6.2011
 IR Inten    --      6.3333                33.1186                19.7268

                     91                     92                     93
                      A                      A                      A
 Frequencies --   3103.6983              3107.9811              3111.8015
 Red. masses --      1.0975                 1.0889                 1.1005
 Frc consts  --      6.2289                 6.1970                 6.2785
 IR Inten    --      6.0916                26.4153                28.8410

                     94                     95                     96
                      A                      A                      A
 Frequencies --   3129.4156              3140.3435              3466.8772
 Red. masses --      1.0896                 1.1078                 1.0746
 Frc consts  --      6.2868                 6.4367                 7.6097
 IR Inten    --     34.3290                 1.3000                 2.7375

 - Thermochemistry -
 -------------------
 Temperature   298.150 Kelvin.  Pressure   1.00000 Atm.
 Atom     1 has atomic number  6 and mass  12.00000

 Molecular mass:   232.10679 amu.
 Principal axes and moments of inertia in atomic units:
                           1         2         3
     Eigenvalues --  1249.67117********************
           X            0.99999   0.00480   0.00196
           Y           -0.00479   0.99995  -0.00892
           Z           -0.00200   0.00891   0.99996
 This molecule is an asymmetric top.
 Rotational symmetry number  1.
 Warning -- assumption of classical behavior for rotation
           may cause significant error
 Rotational temperatures (Kelvin)      0.06931     0.00693     0.00660
 Rotational constants (GHZ):           1.44417     0.14448     0.13756
 Zero-point vibrational energy     755115.1 (Joules/Mol)
                                  180.47684 (Kcal/Mol)
 Warning -- explicit consideration of  26 degrees of freedom as
           vibrations may cause significant error
 Vibrational temperatures:     22.59    37.27    45.09    55.97    82.44
          (Kelvin)             97.72   115.75   151.11   169.80   199.78
                              228.80   278.72   307.47   309.65   316.63
                              339.16   373.94   424.71   541.91   548.01
                              558.98   602.60   635.26   662.75   711.66
                              825.06   984.81  1026.50  1098.19  1113.76
                             1142.49  1179.82  1190.88  1231.15  1275.73
                             1306.07  1394.30  1406.54  1427.15  1458.58
                             1469.48  1528.77  1535.89  1539.31  1553.39
                             1566.55  1582.42  1620.90  1646.23  1671.87
                             1690.11  1730.63  1737.96  1777.04  1813.98
                             1844.80  1868.03  1901.33  1917.74  1944.26
                             1973.26  1980.15  2022.58  2032.35  2073.73
                             2077.91  2112.05  2113.17  2124.35  2127.94
                             2128.82  2145.78  2151.22  2161.31  2178.65
                             2507.47  3528.51  4287.96  4293.78  4340.96
                             4344.13  4349.88  4354.37  4389.59  4400.66
                             4412.74  4431.71  4447.09  4451.15  4452.92
                             4465.53  4471.69  4477.19  4502.53  4518.25
                             4988.06

 Zero-point correction=                           0.287608 (Hartree/Particle)
 Thermal correction to Energy=                    0.306299
 Thermal correction to Enthalpy=                  0.307243
 Thermal correction to Gibbs Free Energy=         0.236793
 Sum of electronic and zero-point Energies=          -1298.599745
 Sum of electronic and thermal Energies=             -1298.581054
 Sum of electronic and thermal Enthalpies=           -1298.580110
 Sum of electronic and thermal Free Energies=        -1298.650560

                     E (Thermal)             CV                S
                      KCal/Mol        Cal/Mol-Kelvin    Cal/Mol-Kelvin
 Total                  192.205             65.041            148.275
 Electronic               0.000              0.000              0.000
 Translational            0.889              2.981             42.228
 Rotational               0.889              2.981             33.682
 Vibrational            190.428             59.079             72.366
 Vibration     1          0.593              1.986              7.115
 Vibration     2          0.593              1.985              6.120
 Vibration     3          0.594              1.983              5.743
 Vibration     4          0.594              1.981              5.314
 Vibration     5          0.596              1.975              4.548
 Vibration     6          0.598              1.970              4.213
 Vibration     7          0.600              1.962              3.880
 Vibration     8          0.605              1.945              3.359
 Vibration     9          0.608              1.934              3.133
 Vibration    10          0.614              1.914              2.820
 Vibration    11          0.621              1.892              2.561
 Vibration    12          0.635              1.849              2.192
 Vibration    13          0.644              1.820              2.012
 Vibration    14          0.645              1.818              1.999
 Vibration    15          0.647              1.811              1.959
 Vibration    16          0.655              1.786              1.835
 Vibration    17          0.668              1.746              1.662
 Vibration    18          0.689              1.683              1.444
 Vibration    19          0.747              1.520              1.053
 Vibration    20          0.751              1.511              1.036
 Vibration    21          0.757              1.495              1.006
 Vibration    22          0.782              1.429              0.896
 Vibration    23          0.801              1.380              0.822
 Vibration    24          0.818              1.337              0.764
 Vibration    25          0.850              1.262              0.672
 Vibration    26          0.930              1.089              0.498

 Optimization completed.
    -- Stationary point found.
 Normal termination of Gaussian 16 at Wed May 17 21:17:18 2023.
