 Gaussian 16, Revision A.03,
 Gaussian 16:  ES64L-G16RevA.03 25-Dec-2016

 -----------------------------
 # opt freq b3lyp/6-31g(2df,p)
 -----------------------------

 -------------------
 Title Card Required
 -------------------
 Symbolic Z-matrix:
 Charge =  0 Multiplicity = 1

 SCF Done:  E(RB3LYP) =  -712.959775506     A.U. after   14 cycles
 SCF Done:  E(RB3LYP) =  -712.968345957     A.U. after   12 cycles
 SCF Done:  E(RB3LYP) =  -712.969749876     A.U. after   12 cycles
 SCF Done:  E(RB3LYP) =  -712.970286958     A.U. after   11 cycles
 SCF Done:  E(RB3LYP) =  -712.970508936     A.U. after   11 cycles
 SCF Done:  E(RB3LYP) =  -712.970675980     A.U. after   12 cycles
 SCF Done:  E(RB3LYP) =  -712.970777150     A.U. after   12 cycles
 SCF Done:  E(RB3LYP) =  -712.970806891     A.U. after   12 cycles
 SCF Done:  E(RB3LYP) =  -712.970833017     A.U. after   10 cycles
 SCF Done:  E(RB3LYP) =  -712.971335241     A.U. after   13 cycles
 SCF Done:  E(RB3LYP) =  -712.975263091     A.U. after   12 cycles
 SCF Done:  E(RB3LYP) =  -712.976246234     A.U. after   12 cycles
 SCF Done:  E(RB3LYP) =  -712.977352082     A.U. after   13 cycles
 SCF Done:  E(RB3LYP) =  -712.977466492     A.U. after   11 cycles
 SCF Done:  E(RB3LYP) =  -712.977508473     A.U. after   11 cycles
 SCF Done:  E(RB3LYP) =  -712.977510615     A.U. after    9 cycles
 SCF Done:  E(RB3LYP) =  -712.977511094     A.U. after    7 cycles
 SCF Done:  E(RB3LYP) =  -712.977511188     A.U. after    6 cycles
 SCF Done:  E(RB3LYP) =  -712.977511238     A.U. after    6 cycles
 Optimization completed.
    -- Stationary point found.
 Normal termination of Gaussian 16 at Sat May 20 12:24:17 2023.

 ----------------------------------------------------------------------
 #N Geom=AllCheck Guess=TCheck SCRF=Check GenChk RB3LYP/6-31G(2df,p) Fr
 eq
 ----------------------------------------------------------------------

 Structure from the checkpoint file:  "CCdCC1dCCqdCCdCCCOrCdCCdC1N.chk"
 -------------------
 Title Card Required
 -------------------
 Charge =  0 Multiplicity = 1

                         Standard orientation:
 ---------------------------------------------------------------------
 Center     Atomic      Atomic             Coordinates (Angstroms)
 Number     Number       Type             X           Y           Z
 ---------------------------------------------------------------------
      1          6           0        1.787517    4.238135    0.023798
      2          6           0        1.658529    2.766560    0.275222
      3          6           0        2.365088    1.816876   -0.346866
      4          6           0        2.204644    0.354993   -0.155379
      5          6           0        0.937460   -0.140967   -0.150015
      6          6           0        0.378358   -1.477532   -0.016239
      7          6           0       -0.975260   -1.656933    0.148769
      8          6           0       -2.002194   -0.665532    0.308511
      9          6           0       -3.313366   -0.940376    0.452963
     10          6           0       -4.394505    0.084133    0.611115
     11          6           0       -5.383001    0.095509   -0.568360
     12          8           0       -6.415351    1.055618   -0.413144
     13          6           0        1.212197   -2.658476   -0.143388
     14          6           0        2.561106   -2.765049   -0.162129
     15          6           0        3.577587   -1.765964   -0.032660
     16          6           0        3.456797   -0.408047   -0.014608
     17          7           0        4.608138    0.374289    0.071619
     18          1           0        0.840201    4.660128   -0.335313
     19          1           0        2.557793    4.455036   -0.721830
     20          1           0        2.036628    4.779400    0.945020
     21          1           0        0.926360    2.468692    1.024712
     22          1           0        3.135271    2.120841   -1.055155
     23          1           0        0.184969    0.623349   -0.310415
     24          1           0       -1.323777   -2.688066    0.179037
     25          1           0       -1.708670    0.382367    0.335944
     26          1           0       -3.633396   -1.982632    0.436320
     27          1           0       -3.965851    1.086798    0.717889
     28          1           0       -4.970970   -0.114468    1.529571
     29          1           0       -5.793391   -0.916171   -0.719598
     30          1           0       -4.854923    0.368567   -1.487364
     31          1           0       -6.919602    0.818585    0.371746
     32          1           0        0.655856   -3.589677   -0.223427
     33          1           0        2.948986   -3.777724   -0.247586
     34          1           0        4.590372   -2.153060    0.062392
     35          1           0        5.436650   -0.124515    0.361524
     36          1           0        4.497585    1.253606    0.555945
 ---------------------------------------------------------------------

 SCF Done:  E(RB3LYP) =  -712.977511238     A.U. after    1 cycles

 The electronic state is 1-A.
 Alpha  occ. eigenvalues --  -19.12726 -14.34257 -10.23200 -10.21917 -10.20280
 Alpha  occ. eigenvalues --  -10.19344 -10.19260 -10.18945 -10.18752 -10.18697
 Alpha  occ. eigenvalues --  -10.18221 -10.17765 -10.17621 -10.17441 -10.17330
 Alpha  occ. eigenvalues --  -10.17138 -10.16556  -1.00803  -0.92617  -0.83698
 Alpha  occ. eigenvalues --   -0.80856  -0.79437  -0.76907  -0.76099  -0.72458
 Alpha  occ. eigenvalues --   -0.69677  -0.66840  -0.64442  -0.62674  -0.59133
 Alpha  occ. eigenvalues --   -0.55830  -0.55058  -0.54077  -0.52216  -0.50209
 Alpha  occ. eigenvalues --   -0.49025  -0.47752  -0.45688  -0.45542  -0.44384
 Alpha  occ. eigenvalues --   -0.43548  -0.42505  -0.41536  -0.41254  -0.40445
 Alpha  occ. eigenvalues --   -0.38909  -0.38389  -0.37446  -0.36723  -0.36037
 Alpha  occ. eigenvalues --   -0.35189  -0.34544  -0.34227  -0.33064  -0.32230
 Alpha  occ. eigenvalues --   -0.31683  -0.29099  -0.28559  -0.26255  -0.24695
 Alpha  occ. eigenvalues --   -0.22728  -0.15692
 Alpha virt. eigenvalues --   -0.04925  -0.03460   0.01613   0.06780   0.08257
 Alpha virt. eigenvalues --    0.08425   0.09928   0.10215   0.11168   0.12720
 Alpha virt. eigenvalues --    0.12921   0.13088   0.13855   0.14772   0.15351

 Mulliken charges:
               1
     1  C   -0.428219
     2  C   -0.044642
     3  C   -0.167865
     4  C    0.161304
     5  C   -0.202422
     6  C    0.181691
     7  C   -0.162436
     8  C   -0.069717
     9  C   -0.089044
    10  C   -0.262636
    11  C   -0.045855
    12  O   -0.417041
    13  C   -0.145223
    14  C   -0.097192
    15  C   -0.174257
    16  C    0.219976
    17  N   -0.568470
    18  H    0.133167
    19  H    0.121961
    20  H    0.127134
    21  H    0.092203
    22  H    0.107417
    23  H    0.104237
    24  H    0.071244
    25  H    0.073640
    26  H    0.072022
    27  H    0.101653
    28  H    0.087114
    29  H    0.084103
    30  H    0.116112
    31  H    0.279149
    32  H    0.084264
    33  H    0.086982
    34  H    0.069227
    35  H    0.247968
    36  H    0.252451
 Sum of Mulliken charges =   0.00000

 Dipole moment (field-independent basis, Debye):
    X=              2.7373    Y=              0.6678    Z=              1.8692  Tot=              3.3812
 Quadrupole moment (field-independent basis, Debye-Ang):
   XX=            -88.9704   YY=            -95.4290   ZZ=           -105.3140
   XY=              8.7316   XZ=             -3.5746   YZ=              2.4965

  Exact polarizability: 367.384   8.640 217.576 -15.025   5.725  94.769
 Approx polarizability: 623.736  25.975 328.956 -37.944  10.815 155.388

                      1                      2                      3
                      A                      A                      A
 Frequencies --     20.8624                28.7520                54.7250
 Red. masses --      4.3474                 4.6923                 4.0995
 Frc consts  --      0.0011                 0.0023                 0.0072
 IR Inten    --      0.2529                 0.7431                 0.7905

                      4                      5                      6
                      A                      A                      A
 Frequencies --     68.5754                86.2364                99.4027
 Red. masses --      2.3569                 2.9556                 2.9772
 Frc consts  --      0.0065                 0.0130                 0.0173
 IR Inten    --      2.3830                 2.1989                 0.1002

                      7                      8                      9
                      A                      A                      A
 Frequencies --    118.6868               147.7275               153.2308
 Red. masses --      2.7875                 1.6772                 3.4198
 Frc consts  --      0.0231                 0.0216                 0.0473
 IR Inten    --      1.3979                 0.5647                 1.4722

                     10                     11                     12
                      A                      A                      A
 Frequencies --    183.5790               214.5586               230.7514
 Red. masses --      2.9377                 1.4468                 2.7719
 Frc consts  --      0.0583                 0.0392                 0.0870
 IR Inten    --      0.6546                 1.1753                 4.3497

                     13                     14                     15
                      A                      A                      A
 Frequencies --    239.0414               272.2748               282.8923
 Red. masses --      3.2055                 3.4634                 3.0894
 Frc consts  --      0.1079                 0.1513                 0.1457
 IR Inten    --      1.1845                 0.8763                 0.0565

                     16                     17                     18
                      A                      A                      A
 Frequencies --    300.1761               324.4562               358.8745
 Red. masses --      1.4922                 2.4829                 2.4594
 Frc consts  --      0.0792                 0.1540                 0.1866
 IR Inten    --    101.7050                43.0969                 9.4957

                     19                     20                     21
                      A                      A                      A
 Frequencies --    379.5285               389.8230               423.4747
 Red. masses --      2.3405                 3.8768                 1.5308
 Frc consts  --      0.1986                 0.3471                 0.1617
 IR Inten    --     14.1269                 2.4777                40.1355

                     22                     23                     24
                      A                      A                      A
 Frequencies --    439.6692               469.0897               474.3963
 Red. masses --      3.9613                 2.9080                 4.2437
 Frc consts  --      0.4512                 0.3770                 0.5627
 IR Inten    --     27.2323                 7.5995                 2.5828

                     25                     26                     27
                      A                      A                      A
 Frequencies --    478.8935               539.5760               558.0274
 Red. masses --      3.5463                 3.8121                 3.3282
 Frc consts  --      0.4792                 0.6539                 0.6106
 IR Inten    --      6.1436                 0.9946                 3.7430

                     28                     29                     30
                      A                      A                      A
 Frequencies --    608.1607               619.1292               698.7986
 Red. masses --      1.5121                 2.5530                 4.3723
 Frc consts  --      0.3295                 0.5766                 1.2579
 IR Inten    --    321.1849                89.7169                14.9532

                     31                     32                     33
                      A                      A                      A
 Frequencies --    726.2483               740.2957               785.6329
 Red. masses --      3.3122                 3.3838                 1.2990
 Frc consts  --      1.0293                 1.0926                 0.4724
 IR Inten    --      7.3201                 7.4908                20.0454

                     34                     35                     36
                      A                      A                      A
 Frequencies --    788.7648               835.0845               836.7715
 Red. masses --      1.2091                 1.6803                 1.6964
 Frc consts  --      0.4432                 0.6904                 0.6998
 IR Inten    --      6.8692                 0.2568                 3.1983

                     37                     38                     39
                      A                      A                      A
 Frequencies --    856.3892               872.5390               897.6840
 Red. masses --      4.0166                 1.6300                 1.7290
 Frc consts  --      1.7356                 0.7311                 0.8209
 IR Inten    --      1.9541                26.2628                 7.5308

                     40                     41                     42
                      A                      A                      A
 Frequencies --    935.4296               941.9602               966.0851
 Red. masses --      1.7764                 2.2834                 1.9502
 Frc consts  --      0.9158                 1.1937                 1.0724
 IR Inten    --     18.4097                 0.6034                 1.9601

                     43                     44                     45
                      A                      A                      A
 Frequencies --    996.0537               999.8993              1006.3468
 Red. masses --      1.4435                 1.4961                 1.4240
 Frc consts  --      0.8438                 0.8813                 0.8497
 IR Inten    --     13.8888                19.3881                21.6349

                     46                     47                     48
                      A                      A                      A
 Frequencies --   1012.2931              1020.9819              1027.6157
 Red. masses --      2.0117                 1.4571                 1.5003
 Frc consts  --      1.2146                 0.8949                 0.9335
 IR Inten    --     13.8168                21.9272                 6.3546

                     49                     50                     51
                      A                      A                      A
 Frequencies --   1068.1067              1068.9512              1106.4898
 Red. masses --      1.6083                 4.2985                 2.4653
 Frc consts  --      1.0810                 2.8939                 1.7784
 IR Inten    --     16.6378               191.0628                 0.3355

                     52                     53                     54
                      A                      A                      A
 Frequencies --   1122.1087              1139.9761              1157.6727
 Red. masses --      2.2858                 2.4415                 1.7961
 Frc consts  --      1.6957                 1.8694                 1.4182
 IR Inten    --      0.1698                 8.9719                 2.5219

                     55                     56                     57
                      A                      A                      A
 Frequencies --   1163.3047              1195.6320              1247.1975
 Red. masses --      1.3246                 2.1082                 1.4887
 Frc consts  --      1.0562                 1.7757                 1.3644
 IR Inten    --      5.8908                16.5461                42.3366

                     58                     59                     60
                      A                      A                      A
 Frequencies --   1265.1913              1279.5890              1301.5588
 Red. masses --      1.4329                 1.4185                 1.6323
 Frc consts  --      1.3514                 1.3685                 1.6293
 IR Inten    --     66.1724                 1.9064                12.9294

                     61                     62                     63
                      A                      A                      A
 Frequencies --   1308.7081              1316.7785              1331.9369
 Red. masses --      1.2524                 1.3515                 1.3172
 Frc consts  --      1.2638                 1.3806                 1.3768
 IR Inten    --     21.8250                 3.3894                 6.9433

                     64                     65                     66
                      A                      A                      A
 Frequencies --   1335.2518              1343.4556              1386.8141
 Red. masses --      1.4228                 1.3539                 1.2691
 Frc consts  --      1.4945                 1.4397                 1.4381
 IR Inten    --      3.1823                 0.4023                 5.1477

                     67                     68                     69
                      A                      A                      A
 Frequencies --   1390.7649              1406.1193              1411.1057
 Red. masses --      1.2691                 2.1571                 1.2545
 Frc consts  --      1.4463                 2.5129                 1.4718
 IR Inten    --     16.5724                 1.7255                 1.7563

                     70                     71                     72
                      A                      A                      A
 Frequencies --   1413.8162              1455.8443              1476.9774
 Red. masses --      1.2591                 1.5755                 1.1289
 Frc consts  --      1.4828                 1.9674                 1.4510
 IR Inten    --     74.3269                 8.4660                16.1656

                     73                     74                     75
                      A                      A                      A
 Frequencies --   1478.4060              1482.4478              1490.1401
 Red. masses --      1.0456                 1.9033                 1.0779
 Frc consts  --      1.3465                 2.4644                 1.4102
 IR Inten    --      4.8880                 1.3778                11.1244

                     76                     77                     78
                      A                      A                      A
 Frequencies --   1511.0600              1581.8037              1604.5126
 Red. masses --      1.0909                 5.5531                 5.0569
 Frc consts  --      1.4676                 8.1863                 7.6705
 IR Inten    --      0.1885                 7.2219               341.3793

                     79                     80                     81
                      A                      A                      A
 Frequencies --   1628.3748              1650.4299              1674.9260
 Red. masses --      3.1454                 1.5775                 4.6223
 Frc consts  --      4.9140                 2.5318                 7.6400
 IR Inten    --     77.3243               337.5643                24.1050

                     82                     83                     84
                      A                      A                      A
 Frequencies --   1693.4638              1715.3654              2970.2124
 Red. masses --      5.5915                 5.5560                 1.0714
 Frc consts  --      9.4479                 9.6322                 5.5690
 IR Inten    --      2.4939                22.0351                83.2458

                     85                     86                     87
                      A                      A                      A
 Frequencies --   2972.9998              3018.0813              3062.4655
 Red. masses --      1.0683                 1.0373                 1.0872
 Frc consts  --      5.5633                 5.5669                 6.0075
 IR Inten    --     62.2160                36.3860                12.4077

                     88                     89                     90
                      A                      A                      A
 Frequencies --   3064.6415              3084.0928              3106.1445
 Red. masses --      1.0985                 1.0953                 1.0984
 Frc consts  --      6.0785                 6.1383                 6.2438
 IR Inten    --     17.2627                31.1235                10.1309

                     91                     92                     93
                      A                      A                      A
 Frequencies --   3120.7593              3127.2067              3129.1619
 Red. masses --      1.0874                 1.0833                 1.0881
 Frc consts  --      6.2398                 6.2417                 6.2773
 IR Inten    --     15.3735                14.2302                10.4844

                     94                     95                     96
                      A                      A                      A
 Frequencies --   3129.7452              3138.7892              3140.8056
 Red. masses --      1.0860                 1.0863                 1.0875
 Frc consts  --      6.2674                 6.3054                 6.3207
 IR Inten    --      4.4957                24.8333                29.4730

                     97                     98                     99
                      A                      A                      A
 Frequencies --   3142.2473              3160.3221              3185.2253
 Red. masses --      1.0857                 1.0921                 1.0841
 Frc consts  --      6.3160                 6.4266                 6.4803
 IR Inten    --     17.5237                45.1378                 5.5980

                    100                    101                    102
                      A                      A                      A
 Frequencies --   3555.6541              3661.0220              3813.1854
 Red. masses --      1.0470                 1.0984                 1.0660
 Frc consts  --      7.7986                 8.6739                 9.1325
 IR Inten    --     25.1464                18.3839                23.6706

 - Thermochemistry -
 -------------------
 Temperature   298.150 Kelvin.  Pressure   1.00000 Atm.
 Atom     1 has atomic number  6 and mass  12.00000

 Molecular mass:   229.14666 amu.
 Principal axes and moments of inertia in atomic units:
                           1         2         3
     Eigenvalues --  2900.363489375.30160**********
           X            0.99994   0.01077  -0.00106
           Y           -0.01077   0.99994   0.00252
           Z            0.00109  -0.00251   1.00000
 This molecule is an asymmetric top.
 Rotational symmetry number  1.
 Warning -- assumption of classical behavior for rotation
           may cause significant error
 Rotational temperatures (Kelvin)      0.02986     0.00924     0.00718
 Rotational constants (GHZ):           0.62225     0.19250     0.14954
 Zero-point vibrational energy     803271.4 (Joules/Mol)
                                  191.98647 (Kcal/Mol)
 Warning -- explicit consideration of  29 degrees of freedom as
           vibrations may cause significant error
 Vibrational temperatures:     30.02    41.37    78.74    98.66   124.07
          (Kelvin)            143.02   170.76   212.55   220.46   264.13
                              308.70   332.00   343.93   391.74   407.02
                              431.89   466.82   516.34   546.06   560.87
                              609.29   632.59   674.92   682.55   689.02
                              776.33   802.88   875.01   890.79  1005.42
                             1044.91  1065.12  1130.35  1134.86  1201.50
                             1203.93  1232.15  1255.39  1291.57  1345.87
                             1355.27  1389.98  1433.10  1438.63  1447.91
                             1456.46  1468.97  1478.51  1536.77  1537.98
                             1591.99  1614.46  1640.17  1665.63  1673.74
                             1720.25  1794.44  1820.33  1841.04  1872.65
                             1882.94  1894.55  1916.36  1921.13  1932.93
                             1995.32  2001.00  2023.09  2030.27  2034.17
                             2094.64  2125.04  2127.10  2132.91  2143.98
                             2174.08  2275.86  2308.54  2342.87  2374.60
                             2409.84  2436.52  2468.03  4273.47  4277.48
                             4342.35  4406.20  4409.34  4437.32  4469.05
                             4490.08  4499.35  4502.17  4503.01  4516.02
                             4518.92  4520.99  4547.00  4582.83  5115.79
                             5267.39  5486.32

 Zero-point correction=                           0.305950 (Hartree/Particle)
 Thermal correction to Energy=                    0.324001
 Thermal correction to Enthalpy=                  0.324945
 Thermal correction to Gibbs Free Energy=         0.258436
 Sum of electronic and zero-point Energies=           -712.671561
 Sum of electronic and thermal Energies=              -712.653510
 Sum of electronic and thermal Enthalpies=            -712.652566
 Sum of electronic and thermal Free Energies=         -712.719075

                     E (Thermal)             CV                S
                      KCal/Mol        Cal/Mol-Kelvin    Cal/Mol-Kelvin
 Total                  203.314             67.812            139.980
 Electronic               0.000              0.000              0.000
 Translational            0.889              2.981             42.190
 Rotational               0.889              2.981             34.150
 Vibrational            201.536             61.850             63.640
 Vibration     1          0.593              1.986              6.550
 Vibration     2          0.593              1.984              5.914
 Vibration     3          0.596              1.976              4.639
 Vibration     4          0.598              1.969              4.194
 Vibration     5          0.601              1.959              3.744
 Vibration     6          0.604              1.950              3.466
 Vibration     7          0.609              1.934              3.122
 Vibration     8          0.617              1.905              2.701
 Vibration     9          0.619              1.899              2.632
 Vibration    10          0.631              1.862              2.292
 Vibration    11          0.644              1.819              2.005
 Vibration    12          0.652              1.794              1.873
 Vibration    13          0.657              1.781              1.810
 Vibration    14          0.675              1.724              1.582
 Vibration    15          0.682              1.705              1.516
 Vibration    16          0.693              1.673              1.416
 Vibration    17          0.709              1.627              1.288
 Vibration    18          0.734              1.557              1.127
 Vibration    19          0.750              1.514              1.041
 Vibration    20          0.758              1.492              1.001
 Vibration    21          0.786              1.419              0.880
 Vibration    22          0.800              1.384              0.828
 Vibration    23          0.826              1.319              0.740
 Vibration    24          0.831              1.307              0.725
 Vibration    25          0.835              1.297              0.713
 Vibration    26          0.895              1.163              0.566
 Vibration    27          0.914              1.122              0.528
 Vibration    28          0.967              1.015              0.436
 Vibration    29          0.979              0.991              0.418

                           ! Non-Optimized Parameters !
 Normal termination of Gaussian 16 at Sat May 20 15:49:22 2023.
