 Gaussian 16, Revision A.03,
 Gaussian 16:  ES64L-G16RevA.03 25-Dec-2016

 -----------------------------
 # opt freq b3lyp/6-31g(2df,p)
 -----------------------------

 -------------------
 Title Card Required
 -------------------
 Symbolic Z-matrix:
 Charge =  0 Multiplicity = 1

 SCF Done:  E(RB3LYP) =  -628.385988564     A.U. after   48 cycles
 SCF Done:  E(RB3LYP) =  -628.602928328     A.U. after   27 cycles
 SCF Done:  E(RB3LYP) =  -628.922502086     A.U. after   27 cycles
 SCF Done:  E(RB3LYP) =  -629.207253636     A.U. after   27 cycles
 SCF Done:  E(RB3LYP) =  -629.286184977     A.U. after   29 cycles
 SCF Done:  E(RB3LYP) =  -629.444061195     A.U. after   26 cycles
 SCF Done:  E(RB3LYP) =  -629.514339433     A.U. after   24 cycles
 SCF Done:  E(RB3LYP) =  -629.529943336     A.U. after   19 cycles
 SCF Done:  E(RB3LYP) =  -629.603237930     A.U. after   20 cycles
 SCF Done:  E(RB3LYP) =  -629.846139238     A.U. after   20 cycles
 SCF Done:  E(RB3LYP) =  -630.342012520     A.U. after   10 cycles
 SCF Done:  E(RB3LYP) =  -630.342013431     A.U. after    8 cycles
 SCF Done:  E(RB3LYP) =  -630.342014518     A.U. after    8 cycles
 SCF Done:  E(RB3LYP) =  -630.342014639     A.U. after    8 cycles
 SCF Done:  E(RB3LYP) =  -630.342015038     A.U. after    8 cycles
 SCF Done:  E(RB3LYP) =  -630.342015351     A.U. after    8 cycles
 SCF Done:  E(RB3LYP) =  -630.342015529     A.U. after    7 cycles
 SCF Done:  E(RB3LYP) =  -630.342015694     A.U. after    8 cycles
 SCF Done:  E(RB3LYP) =  -630.342015777     A.U. after    7 cycles
 Optimization completed.
    -- Stationary point found.
 Normal termination of Gaussian 16 at Fri May 19 18:48:53 2023.

 ----------------------------------------------------------------------
 #N Geom=AllCheck Guess=TCheck SCRF=Check GenChk RB3LYP/6-31G(2df,p) Fr
 eq
 ----------------------------------------------------------------------

 Structure from the checkpoint file:  "CCdC1CdCCdCCdNCdCqNrCNdC1.chk"
 -------------------
 Title Card Required
 -------------------
 Charge =  0 Multiplicity = 1

                         Standard orientation:
 ---------------------------------------------------------------------
 Center     Atomic      Atomic             Coordinates (Angstroms)
 Number     Number       Type             X           Y           Z
 ---------------------------------------------------------------------
      1          6           0        3.885669    2.511641   -0.208703
      2          6           0        4.630020    1.215470   -0.061011
      3          6           0        4.110677   -0.009227    0.014133
      4          6           0        4.315963   -1.411598    0.093417
      5          6           0        3.043403   -1.012707    0.031035
      6          6           0        1.705925   -1.475939   -0.018377
      7          6           0        0.544283   -0.751581    0.064395
      8          6           0       -0.665304   -1.506106   -0.063444
      9          7           0       -1.890023   -1.064250   -0.029648
     10          6           0       -3.170953   -1.545097   -0.131335
     11          6           0       -4.898137    0.535563   -0.020694
     12          7           0       -4.703006    1.981025   -0.082503
     13          6           0       -3.601853   -0.185124   -0.049757
     14          7           0       -2.393569    0.365236    0.100630
     15          6           0        0.520356    0.734083    0.294058
     16          1           0        4.330172    3.128161   -1.000186
     17          1           0        3.916167    3.117151    0.708331
     18          1           0        2.836203    2.357714   -0.468729
     19          1           0        5.715070    1.282869   -0.019840
     20          1           0        5.008111   -2.235434    0.156233
     21          1           0        1.514997    1.095032    0.546590
     22          1           0        1.619945   -2.555331   -0.132533
     23          1           0       -0.173012    0.987178    1.097504
     24          1           0       -0.587269   -2.581461   -0.210412
     25          1           0       -3.499529   -2.522348   -0.440757
     26          1           0       -3.960639    2.248602    0.556703
     27          1           0       -5.545539    2.457635    0.219218
     28          1           0       -5.439521    0.177291    0.875862
     29          1           0       -5.504404    0.210004   -0.877976
     30          1           0        0.155153    1.262599   -0.591656
 ---------------------------------------------------------------------

 SCF Done:  E(RB3LYP) =  -630.342015777     A.U. after    1 cycles

 The electronic state is 1-A.
 Alpha  occ. eigenvalues --  -14.42507 -14.32289 -14.30885 -10.24209 -10.22752
 Alpha  occ. eigenvalues --  -10.22088 -10.22014 -10.21898 -10.21315 -10.20527
 Alpha  occ. eigenvalues --  -10.20211 -10.18954 -10.17387 -10.16549 -10.15722
 Alpha  occ. eigenvalues --   -1.03658  -0.89958  -0.89178  -0.86334  -0.80918
 Alpha  occ. eigenvalues --   -0.74885  -0.71882  -0.70761  -0.70123  -0.65070
 Alpha  occ. eigenvalues --   -0.63219  -0.57105  -0.56572  -0.52115  -0.51497
 Alpha  occ. eigenvalues --   -0.49092  -0.48036  -0.47732  -0.46416  -0.46264
 Alpha  occ. eigenvalues --   -0.44067  -0.42717  -0.41042  -0.40996  -0.40486
 Alpha  occ. eigenvalues --   -0.39580  -0.38478  -0.37580  -0.37316  -0.36485
 Alpha  occ. eigenvalues --   -0.35621  -0.34165  -0.30939  -0.29352  -0.28125
 Alpha  occ. eigenvalues --   -0.25670  -0.23736  -0.19164  -0.16615
 Alpha virt. eigenvalues --   -0.08670   0.00524   0.05540   0.05932   0.07437
 Alpha virt. eigenvalues --    0.09240   0.10292   0.10816   0.11459   0.12619
 Alpha virt. eigenvalues --    0.13198   0.13513   0.14659   0.15559   0.16136

 Mulliken charges:
               1
     1  C   -0.435694
     2  C   -0.253358
     3  C    0.273351
     4  C   -0.281276
     5  C    0.220684
     6  C   -0.267826
     7  C    0.165863
     8  C    0.042851
     9  N    0.053669
    10  C   -0.335530
    11  C   -0.281778
    12  N   -0.509284
    13  C    0.393761
    14  N   -0.366843
    15  C   -0.487928
    16  H    0.113759
    17  H    0.114759
    18  H    0.120558
    19  H    0.073577
    20  H    0.152170
    21  H    0.139683
    22  H    0.093091
    23  H    0.153099
    24  H    0.120639
    25  H    0.122898
    26  H    0.246182
    27  H    0.229413
    28  H    0.112509
    29  H    0.127853
    30  H    0.149150
 Sum of Mulliken charges =  -0.00000

 Dipole moment (field-independent basis, Debye):
    X=             -1.1548    Y=             -2.6937    Z=              0.7953  Tot=              3.0368
 Quadrupole moment (field-independent basis, Debye-Ang):
   XX=            -76.0494   YY=            -81.4196   ZZ=            -91.9765
   XY=             -4.7273   XZ=             -3.5296   YZ=              4.2017

  Exact polarizability: 451.326  11.832 167.822   1.302   2.306  77.908
 Approx polarizability: 894.544   4.416 269.167   5.289   3.596 126.903

                      1                      2                      3
                      A                      A                      A
 Frequencies --     26.5663                36.1484                52.5660
 Red. masses --      3.9790                 3.6159                 2.3677
 Frc consts  --      0.0017                 0.0028                 0.0039
 IR Inten    --      1.3686                 0.6755                 5.1212

                      4                      5                      6
                      A                      A                      A
 Frequencies --     62.1587                91.9900                99.9920
 Red. masses --      3.3707                 2.3418                 2.1235
 Frc consts  --      0.0077                 0.0117                 0.0125
 IR Inten    --      1.9569                 1.9472                 2.3855

                      7                      8                      9
                      A                      A                      A
 Frequencies --    119.7019               126.6621               148.1663
 Red. masses --      1.2913                 2.9558                 2.0684
 Frc consts  --      0.0109                 0.0279                 0.0268
 IR Inten    --      1.3104                19.9347                16.7185

                     10                     11                     12
                      A                      A                      A
 Frequencies --    192.9597               199.2877               217.8514
 Red. masses --      1.4023                 1.9381                 3.1824
 Frc consts  --      0.0308                 0.0454                 0.0890
 IR Inten    --     55.7166                 1.8225                15.9305

                     13                     14                     15
                      A                      A                      A
 Frequencies --    244.6181               274.8431               278.4329
 Red. masses --      3.3799                 3.2873                 3.5461
 Frc consts  --      0.1192                 0.1463                 0.1620
 IR Inten    --      1.9702                 8.9607                25.1405

                     16                     17                     18
                      A                      A                      A
 Frequencies --    304.5091               327.2737               368.7851
 Red. masses --      1.5912                 3.1158                 3.2119
 Frc consts  --      0.0869                 0.1966                 0.2574
 IR Inten    --    104.9267                 5.2727                 4.7769

                     19                     20                     21
                      A                      A                      A
 Frequencies --    385.1240               445.1565               491.4816
 Red. masses --      4.0639                 3.0900                 4.6988
 Frc consts  --      0.3551                 0.3608                 0.6687
 IR Inten    --      3.4246                18.0038                 0.5605

                     22                     23                     24
                      A                      A                      A
 Frequencies --    517.2125               526.9545               578.5628
 Red. masses --      2.5645                 3.0595                 5.3857
 Frc consts  --      0.4042                 0.5005                 1.0622
 IR Inten    --      3.7323                11.5666                 4.1857

                     25                     26                     27
                      A                      A                      A
 Frequencies --    626.1937               670.9112               699.6603
 Red. masses --      4.5365                 3.2811                 4.3048
 Frc consts  --      1.0481                 0.8702                 1.2416
 IR Inten    --     38.7346                50.4578                 2.0080

                     28                     29                     30
                      A                      A                      A
 Frequencies --    716.8427               744.0359               758.8520
 Red. masses --      4.4479                 3.6663                 1.2031
 Frc consts  --      1.3466                 1.1958                 0.4082
 IR Inten    --     16.4894                22.7050                 1.1845

                     31                     32                     33
                      A                      A                      A
 Frequencies --    801.3896               839.5380               862.0182
 Red. masses --      1.4164                 1.3070                 2.8306
 Frc consts  --      0.5360                 0.5427                 1.2392
 IR Inten    --     27.5622               158.1156                13.7950

                     34                     35                     36
                      A                      A                      A
 Frequencies --    865.5944               881.8035               918.8743
 Red. masses --      1.4043                 2.3625                 1.4853
 Frc consts  --      0.6199                 1.0824                 0.7389
 IR Inten    --      4.9828                10.7714                25.5896

                     37                     38                     39
                      A                      A                      A
 Frequencies --    992.9340              1003.2488              1030.6329
 Red. masses --      1.5541                 2.2046                 2.6991
 Frc consts  --      0.9027                 1.3074                 1.6892
 IR Inten    --      1.9827                29.1914                32.4595

                     40                     41                     42
                      A                      A                      A
 Frequencies --   1039.1340              1050.6358              1061.9460
 Red. masses --      2.4052                 1.4216                 1.5497
 Frc consts  --      1.5302                 0.9246                 1.0297
 IR Inten    --    402.6283                15.6767                45.3339

                     43                     44                     45
                      A                      A                      A
 Frequencies --   1063.4396              1106.8851              1111.2389
 Red. masses --      2.0726                 2.1533                 2.1541
 Frc consts  --      1.3810                 1.5544                 1.5673
 IR Inten    --    391.0726                 5.2155               195.7683

                     46                     47                     48
                      A                      A                      A
 Frequencies --   1133.9227              1165.2385              1189.8101
 Red. masses --      2.3909                 2.1630                 1.8453
 Frc consts  --      1.8113                 1.7304                 1.5391
 IR Inten    --      5.0821                27.9312                 2.7568

                     49                     50                     51
                      A                      A                      A
 Frequencies --   1230.8797              1252.7711              1271.8539
 Red. masses --      2.2995                 1.3167                 1.6671
 Frc consts  --      2.0527                 1.2175                 1.5889
 IR Inten    --    225.0904                42.5819                66.8515

                     52                     53                     54
                      A                      A                      A
 Frequencies --   1325.4953              1367.2767              1399.1059
 Red. masses --      2.6812                 1.4278                 1.6378
 Frc consts  --      2.7755                 1.5726                 1.8889
 IR Inten    --    211.9670                32.7206                67.5177

                     55                     56                     57
                      A                      A                      A
 Frequencies --   1403.7752              1412.5388              1426.4432
 Red. masses --      1.4725                 1.2923                 1.4138
 Frc consts  --      1.7096                 1.5192                 1.6949
 IR Inten    --     57.3420                 5.5185                 5.8515

                     58                     59                     60
                      A                      A                      A
 Frequencies --   1431.0920              1467.6642              1474.8020
 Red. masses --      1.9993                 1.1078                 1.0608
 Frc consts  --      2.4124                 1.4059                 1.3594
 IR Inten    --     19.5324                15.0558                 9.6418

                     61                     62                     63
                      A                      A                      A
 Frequencies --   1485.3116              1487.1532              1499.4785
 Red. masses --      1.1480                 1.0544                 1.0651
 Frc consts  --      1.4922                 1.3740                 1.4110
 IR Inten    --     31.2798                 4.7631                 3.5260

                     64                     65                     66
                      A                      A                      A
 Frequencies --   1540.8206              1586.8053              1615.4122
 Red. masses --      4.3613                 4.3033                 7.4191
 Frc consts  --      6.1006                 6.3841                11.4070
 IR Inten    --     38.8845                16.5438                 2.5320

                     67                     68                     69
                      A                      A                      A
 Frequencies --   1655.1255              1702.1924              1873.8528
 Red. masses --      1.0881                 9.6145                 9.1569
 Frc consts  --      1.7563                16.4133                18.9440
 IR Inten    --     44.1042                25.5630                68.1515

                     70                     71                     72
                      A                      A                      A
 Frequencies --   2919.3632              3002.4943              3016.5333
 Red. masses --      1.0745                 1.0466                 1.0821
 Frc consts  --      5.3954                 5.5588                 5.8014
 IR Inten    --     44.1147                65.4844                20.5258

                     73                     74                     75
                      A                      A                      A
 Frequencies --   3046.4153              3063.2597              3118.2379
 Red. masses --      1.0931                 1.0425                 1.0921
 Frc consts  --      5.9773                 5.7636                 6.2565
 IR Inten    --     32.4638                 4.4081                 4.4027

                     76                     77                     78
                      A                      A                      A
 Frequencies --   3126.3407              3132.0960              3140.2970
 Red. masses --      1.0924                 1.0862                 1.0877
 Frc consts  --      6.2910                 6.2781                 6.3196
 IR Inten    --      3.1276                10.7566                42.9706

                     79                     80                     81
                      A                      A                      A
 Frequencies --   3150.6747              3179.0100              3265.5414
 Red. masses --      1.0866                 1.1003                 1.1117
 Frc consts  --      6.3549                 6.5513                 6.9847
 IR Inten    --     16.4732                 3.4346                13.2327

                     82                     83                     84
                      A                      A                      A
 Frequencies --   3270.6979              3504.1690              3587.9757
 Red. masses --      1.0985                 1.0492                 1.0930
 Frc consts  --      6.9233                 7.5905                 8.2905
 IR Inten    --      0.7319                 1.3689                 1.7024

 - Thermochemistry -
 -------------------
 Temperature   298.150 Kelvin.  Pressure   1.00000 Atm.
 Atom     1 has atomic number  6 and mass  12.00000

 Molecular mass:   201.12660 amu.
 Principal axes and moments of inertia in atomic units:
                           1         2         3
     Eigenvalues --  1342.154258073.512139357.86318
           X            0.99998   0.00625  -0.00155
           Y           -0.00624   0.99996   0.00631
           Z            0.00159  -0.00630   0.99998
 This molecule is an asymmetric top.
 Rotational symmetry number  1.
 Warning -- assumption of classical behavior for rotation
           may cause significant error
 Rotational temperatures (Kelvin)      0.06453     0.01073     0.00926
 Rotational constants (GHZ):           1.34466     0.22354     0.19286
 Zero-point vibrational energy     639312.7 (Joules/Mol)
                                  152.79941 (Kcal/Mol)
 Warning -- explicit consideration of  24 degrees of freedom as
           vibrations may cause significant error
 Vibrational temperatures:     38.22    52.01    75.63    89.43   132.35
          (Kelvin)            143.87   172.22   182.24   213.18   277.63
                              286.73   313.44   351.95   395.44   400.60
                              438.12   470.87   530.60   554.11   640.48
                              707.13   744.15   758.17   832.42   900.95
                              965.29  1006.66  1031.38  1070.50  1091.82
                             1153.02  1207.91  1240.25  1245.40  1268.72
                             1322.06  1428.61  1443.45  1482.85  1495.08
                             1511.63  1527.90  1530.05  1592.56  1598.82
                             1631.46  1676.52  1711.87  1770.96  1802.46
                             1829.91  1907.09  1967.21  2013.00  2019.72
                             2032.33  2052.33  2059.02  2111.64  2121.91
                             2137.03  2139.68  2157.42  2216.90  2283.06
                             2324.22  2381.36  2449.08  2696.06  4200.31
                             4319.92  4340.12  4383.11  4407.35  4486.45
                             4498.11  4506.39  4518.19  4533.12  4573.89
                             4698.39  4705.80  5041.72  5162.30

 Zero-point correction=                           0.243501 (Hartree/Particle)
 Thermal correction to Energy=                    0.260377
 Thermal correction to Enthalpy=                  0.261321
 Thermal correction to Gibbs Free Energy=         0.197444
 Sum of electronic and zero-point Energies=           -630.098514
 Sum of electronic and thermal Energies=              -630.081639
 Sum of electronic and thermal Enthalpies=            -630.080695
 Sum of electronic and thermal Free Energies=         -630.144572

                     E (Thermal)             CV                S
                      KCal/Mol        Cal/Mol-Kelvin    Cal/Mol-Kelvin
 Total                  163.389             60.572            134.440
 Electronic               0.000              0.000              0.000
 Translational            0.889              2.981             41.801
 Rotational               0.889              2.981             32.983
 Vibrational            161.611             54.611             59.656
 Vibration     1          0.593              1.984              6.071
 Vibration     2          0.594              1.982              5.460
 Vibration     3          0.596              1.977              4.718
 Vibration     4          0.597              1.972              4.387
 Vibration     5          0.602              1.955              3.617
 Vibration     6          0.604              1.949              3.454
 Vibration     7          0.609              1.933              3.105
 Vibration     8          0.611              1.926              2.996
 Vibration     9          0.618              1.905              2.696
 Vibration    10          0.635              1.850              2.199
 Vibration    11          0.637              1.841              2.140
 Vibration    12          0.646              1.814              1.977
 Vibration    13          0.660              1.772              1.769
 Vibration    14          0.677              1.720              1.566
 Vibration    15          0.679              1.713              1.543
 Vibration    16          0.695              1.665              1.392
 Vibration    17          0.711              1.621              1.274
 Vibration    18          0.741              1.536              1.085
 Vibration    19          0.754              1.502              1.019
 Vibration    20          0.805              1.372              0.811
 Vibration    21          0.847              1.269              0.680
 Vibration    22          0.872              1.212              0.616
 Vibration    23          0.882              1.190              0.594
 Vibration    24          0.935              1.078              0.488

                           ! Non-Optimized Parameters !
 Normal termination of Gaussian 16 at Fri May 19 20:26:18 2023.
