 Gaussian 16, Revision A.03,
 Gaussian 16:  ES64L-G16RevA.03 25-Dec-2016

 -----------------------------
 # opt freq b3lyp/6-31g(2df,p)
 -----------------------------

 -------------------
 Title Card Required
 -------------------
 Symbolic Z-matrix:
 Charge =  0 Multiplicity = 1

 SCF Done:  E(RB3LYP) =  -860.670071135     A.U. after   42 cycles
 SCF Done:  E(RB3LYP) =  -860.927469907     A.U. after   21 cycles
 SCF Done:  E(RB3LYP) =  -861.237764318     A.U. after   20 cycles
 SCF Done:  E(RB3LYP) =  -861.416463834     A.U. after   22 cycles
 SCF Done:  E(RB3LYP) =  -861.555483369     A.U. after   22 cycles
 SCF Done:  E(RB3LYP) =  -861.713774898     A.U. after   25 cycles
 SCF Done:  E(RB3LYP) =  -861.849773673     A.U. after   22 cycles
 SCF Done:  E(RB3LYP) =  -861.987999331     A.U. after   19 cycles
 SCF Done:  E(RB3LYP) =  -862.040659496     A.U. after   17 cycles
 SCF Done:  E(RB3LYP) =  -862.086409976     A.U. after   18 cycles
 SCF Done:  E(RB3LYP) =  -862.436722647     A.U. after   12 cycles
 SCF Done:  E(RB3LYP) =  -862.436729926     A.U. after   13 cycles
 SCF Done:  E(RB3LYP) =  -862.436729757     A.U. after   14 cycles
 SCF Done:  E(RB3LYP) =  -862.436730936     A.U. after   12 cycles
 SCF Done:  E(RB3LYP) =  -862.436730694     A.U. after   13 cycles
 SCF Done:  E(RB3LYP) =  -862.436731796     A.U. after   12 cycles
 SCF Done:  E(RB3LYP) =  -862.436731904     A.U. after    8 cycles
 SCF Done:  E(RB3LYP) =  -862.436731978     A.U. after    8 cycles
 SCF Done:  E(RB3LYP) =  -862.436731997     A.U. after    7 cycles
 Optimization completed.
    -- Stationary point found.
 Normal termination of Gaussian 16 at Thu May 18 22:21:53 2023.

 ----------------------------------------------------------------------
 #N Geom=AllCheck Guess=TCheck SCRF=Check GenChk RB3LYP/6-31G(2df,p) Fr
 eq
 ----------------------------------------------------------------------

 Structure from the checkpoint file:  "CCdC1CdCCdCCdCCqCdSrdC1.chk"
 -------------------
 Title Card Required
 -------------------
 Charge =  0 Multiplicity = 1

                         Standard orientation:
 ---------------------------------------------------------------------
 Center     Atomic      Atomic             Coordinates (Angstroms)
 Number     Number       Type             X           Y           Z
 ---------------------------------------------------------------------
      1          6           0       -5.963138    0.378151   -0.049712
      2          6           0       -4.718246    1.180539   -0.235772
      3          6           0       -2.992155   -0.587488    0.038348
      4          6           0       -3.429897    0.737039   -0.129762
      5          6           0       -1.630430   -0.939676    0.269453
      6          6           0       -0.644207    0.063198    0.703007
      7          6           0        0.579860    0.184214    0.136019
      8          6           0        1.784093    0.973459    0.210247
      9          6           0        2.627561   -0.014421   -0.417277
     10          6           0        1.330380   -0.302833   -1.006144
     11          6           0        3.917601   -0.373449   -0.559220
     12         16           0        5.210968    0.456800    0.293570
     13          6           0       -1.247145   -2.245505    0.224753
     14          1           0       -6.627493    0.854287    0.683550
     15          1           0       -5.766274   -0.641538    0.287693
     16          1           0       -6.537581    0.321655   -0.985106
     17          1           0       -4.866450    2.231185   -0.473476
     18          1           0       -2.636303    1.480204   -0.208087
     19          1           0       -1.965899   -3.038464    0.035583
     20          1           0       -0.922415    0.708109    1.530163
     21          1           0       -0.217359   -2.532931    0.398247
     22          1           0        1.842047    2.049341    0.033767
     23          1           0        4.194884   -1.173787   -1.232671
     24          1           0        6.154693   -0.486880    0.122428
     25          1           0       -3.712995   -1.399355    0.007145
 ---------------------------------------------------------------------

 SCF Done:  E(RB3LYP) =  -862.436731997     A.U. after    3 cycles

 The electronic state is 1-A.
 Alpha  occ. eigenvalues --  -88.88726 -10.21907 -10.21347 -10.21276 -10.20872
 Alpha  occ. eigenvalues --  -10.20581 -10.20416 -10.20316 -10.20081 -10.19278
 Alpha  occ. eigenvalues --  -10.19263 -10.18819 -10.18137  -7.95203  -5.91630
 Alpha  occ. eigenvalues --   -5.91280  -5.90810  -0.90604  -0.84107  -0.80107
 Alpha  occ. eigenvalues --   -0.79322  -0.73241  -0.72036  -0.67680  -0.66014
 Alpha  occ. eigenvalues --   -0.59360  -0.58555  -0.55453  -0.52215  -0.49593
 Alpha  occ. eigenvalues --   -0.48518  -0.46845  -0.45713  -0.44039  -0.42944
 Alpha  occ. eigenvalues --   -0.42123  -0.41544  -0.40932  -0.38717  -0.37209
 Alpha  occ. eigenvalues --   -0.35821  -0.34995  -0.34539  -0.33407  -0.32457
 Alpha  occ. eigenvalues --   -0.29687  -0.27390  -0.22605  -0.20645  -0.15376
 Alpha virt. eigenvalues --   -0.12672  -0.00530  -0.00270   0.02599   0.03662
 Alpha virt. eigenvalues --    0.07069   0.07774   0.09120   0.09705   0.10589
 Alpha virt. eigenvalues --    0.12555   0.14523   0.15340   0.15423   0.15832

 Mulliken charges:
               1
     1  C   -0.439067
     2  C   -0.043674
     3  C   -0.185633
     4  C   -0.057377
     5  C    0.378758
     6  C   -0.482290
     7  C    0.383879
     8  C   -0.269781
     9  C    0.322363
    10  C   -0.294633
    11  C   -0.298596
    12  S   -0.190973
    13  C   -0.325453
    14  H    0.134835
    15  H    0.127782
    16  H    0.137781
    17  H    0.099662
    18  H    0.097814
    19  H    0.129295
    20  H    0.109364
    21  H    0.152243
    22  H    0.130043
    23  H    0.130985
    24  H    0.159717
    25  H    0.092955
 Sum of Mulliken charges =  -0.00000

 Dipole moment (field-independent basis, Debye):
    X=             -2.7654    Y=             -1.0898    Z=              1.0387  Tot=              3.1487
 Quadrupole moment (field-independent basis, Debye-Ang):
   XX=            -65.1389   YY=            -76.1359   ZZ=            -90.7132
   XY=             -4.6921   XZ=             -0.6830   YZ=             -0.0400

  Exact polarizability: 699.011   6.164 148.304  -2.375   5.515  91.090
 Approx polarizability:3756.183 124.880 294.681 -97.797  17.621 176.391

                      1                      2                      3
                      A                      A                      A
 Frequencies --     22.5575                39.8350                62.6171
 Red. masses --      4.4499                 5.0206                 4.8388
 Frc consts  --      0.0013                 0.0047                 0.0112
 IR Inten    --      0.9410                 0.4947                 8.1195

                      4                      5                      6
                      A                      A                      A
 Frequencies --     87.0464               104.5520               109.3653
 Red. masses --      3.6653                 1.5702                 1.1337
 Frc consts  --      0.0164                 0.0101                 0.0080
 IR Inten    --     14.2823                52.7960                 5.7291

                      7                      8                      9
                      A                      A                      A
 Frequencies --    128.5298               142.9118               155.0970
 Red. masses --      3.0023                 3.2403                 2.8255
 Frc consts  --      0.0292                 0.0390                 0.0400
 IR Inten    --     30.1855                 6.0489                14.0565

                     10                     11                     12
                      A                      A                      A
 Frequencies --    185.7262               250.2489               285.1404
 Red. masses --      3.2016                 3.9363                 3.5185
 Frc consts  --      0.0651                 0.1452                 0.1685
 IR Inten    --      5.0215                 0.5742                 0.6380

                     13                     14                     15
                      A                      A                      A
 Frequencies --    355.2560               397.5596               403.5344
 Red. masses --      3.7587                 2.2340                 4.5760
 Frc consts  --      0.2795                 0.2080                 0.4390
 IR Inten    --      5.6703                 5.1245                99.7257

                     16                     17                     18
                      A                      A                      A
 Frequencies --    444.1850               448.3683               497.4788
 Red. masses --      2.9930                 4.2922                 4.2927
 Frc consts  --      0.3479                 0.5084                 0.6259
 IR Inten    --     18.6526                 6.0770                 8.3580

                     19                     20                     21
                      A                      A                      A
 Frequencies --    544.4069               581.7640               613.8655
 Red. masses --      2.1304                 2.5049                 2.2367
 Frc consts  --      0.3720                 0.4995                 0.4966
 IR Inten    --     59.9990                56.6301                 5.3759

                     22                     23                     24
                      A                      A                      A
 Frequencies --    657.0646               706.8065               730.3836
 Red. masses --      2.0405                 2.7559                 1.5083
 Frc consts  --      0.5190                 0.8112                 0.4741
 IR Inten    --      8.1786                50.1811                29.8678

                     25                     26                     27
                      A                      A                      A
 Frequencies --    750.5471               759.0253               778.1442
 Red. masses --      1.3950                 1.5026                 2.0870
 Frc consts  --      0.4630                 0.5100                 0.7445
 IR Inten    --      9.0842                63.4534                75.6910

                     28                     29                     30
                      A                      A                      A
 Frequencies --    818.7121               841.2864               926.2148
 Red. masses --      2.9877                 1.6778                 2.7121
 Frc consts  --      1.1799                 0.6996                 1.3708
 IR Inten    --     84.6708                14.5693                61.6444

                     31                     32                     33
                      A                      A                      A
 Frequencies --    927.4554               940.4363               958.0234
 Red. masses --      3.3003                 2.8437                 1.9411
 Frc consts  --      1.6726                 1.4818                 1.0496
 IR Inten    --      8.9124                29.7595                30.8423

                     34                     35                     36
                      A                      A                      A
 Frequencies --    979.0274               990.5150              1012.6150
 Red. masses --      1.5064                 1.6956                 1.3426
 Frc consts  --      0.8507                 0.9801                 0.8111
 IR Inten    --     32.3100                17.0587                 8.8913

                     37                     38                     39
                      A                      A                      A
 Frequencies --   1018.2029              1035.6052              1045.4798
 Red. masses --      1.6553                 1.5018                 2.8731
 Frc consts  --      1.0111                 0.9490                 1.8503
 IR Inten    --      6.4927                16.3573                 3.4369

                     40                     41                     42
                      A                      A                      A
 Frequencies --   1084.4870              1129.1131              1208.0169
 Red. masses --      1.5821                 2.5692                 1.9270
 Frc consts  --      1.0963                 1.9299                 1.6568
 IR Inten    --      8.0349                 3.1315                25.5618

                     43                     44                     45
                      A                      A                      A
 Frequencies --   1227.8908              1264.7797              1286.1522
 Red. masses --      1.5034                 1.4812                 1.3606
 Frc consts  --      1.3355                 1.3960                 1.3261
 IR Inten    --     15.7507               229.5001                18.8311

                     46                     47                     48
                      A                      A                      A
 Frequencies --   1300.0038              1322.9687              1396.4389
 Red. masses --      1.5142                 1.5245                 1.5556
 Frc consts  --      1.5077                 1.5721                 1.7872
 IR Inten    --      5.5929                 8.5161               140.9790

                     49                     50                     51
                      A                      A                      A
 Frequencies --   1403.4405              1429.4859              1466.3803
 Red. masses --      1.8951                 1.4296                 1.1536
 Frc consts  --      2.1992                 1.7212                 1.4615
 IR Inten    --     29.4234                36.2809                46.6543

                     52                     53                     54
                      A                      A                      A
 Frequencies --   1475.4651              1506.5281              1575.4190
 Red. masses --      1.0934                 1.7630                 2.8813
 Frc consts  --      1.4025                 2.3575                 4.2134
 IR Inten    --     16.7884                21.6691               113.5450

                     55                     56                     57
                      A                      A                      A
 Frequencies --   1601.2891              1616.0656              1729.3502
 Red. masses --      9.4020                 4.0926                 9.8397
 Frc consts  --     14.2040                 6.2974                17.3380
 IR Inten    --    157.5964                50.6814               296.2523

                     58                     59                     60
                      A                      A                      A
 Frequencies --   2679.7888              3007.3671              3046.2718
 Red. masses --      1.0386                 1.0418                 1.0961
 Frc consts  --      4.3945                 5.5517                 5.9927
 IR Inten    --      0.5811                64.8587                18.5583

                     61                     62                     63
                      A                      A                      A
 Frequencies --   3093.8992              3119.1787              3125.5051
 Red. masses --      1.0902                 1.0916                 1.0879
 Frc consts  --      6.1488                 6.2571                 6.2618
 IR Inten    --     18.0483                 8.2922                11.9936

                     64                     65                     66
                      A                      A                      A
 Frequencies --   3145.4187              3162.0356              3170.3689
 Red. masses --      1.0604                 1.0899                 1.0862
 Frc consts  --      6.1813                 6.4203                 6.4326
 IR Inten    --      8.7064                17.1988                10.6640

                     67                     68                     69
                      A                      A                      A
 Frequencies --   3174.8642              3210.1545              3252.7631
 Red. masses --      1.0867                 1.0895                 1.1136
 Frc consts  --      6.4538                 6.6152                 6.9419
 IR Inten    --      3.4562                 4.4742                 6.9550

 - Thermochemistry -
 -------------------
 Temperature   298.150 Kelvin.  Pressure   1.00000 Atm.
 Atom     1 has atomic number  6 and mass  12.00000

 Molecular mass:   188.06597 amu.
 Principal axes and moments of inertia in atomic units:
                           1         2         3
     Eigenvalues --   677.376208784.381679206.86084
           X            0.99999  -0.00509  -0.00118
           Y            0.00510   0.99999   0.00123
           Z            0.00117  -0.00124   1.00000
 This molecule is an asymmetric top.
 Rotational symmetry number  1.
 Warning -- assumption of classical behavior for rotation
           may cause significant error
 Rotational temperatures (Kelvin)      0.12787     0.00986     0.00941
 Rotational constants (GHZ):           2.66431     0.20545     0.19602
 Zero-point vibrational energy     502111.5 (Joules/Mol)
                                  120.00752 (Kcal/Mol)
 Warning -- explicit consideration of  21 degrees of freedom as
           vibrations may cause significant error
 Vibrational temperatures:     32.46    57.31    90.09   125.24   150.43
          (Kelvin)            157.35   184.93   205.62   223.15   267.22
                              360.05   410.25   511.13   572.00   580.60
                              639.08   645.10   715.76   783.28   837.03
                              883.22   945.37  1016.94  1050.86  1079.87
                             1092.07  1119.58  1177.94  1210.42  1332.62
                             1334.40  1353.08  1378.38  1408.60  1425.13
                             1456.93  1464.97  1490.00  1504.21  1560.33
                             1624.54  1738.07  1766.66  1819.74  1850.49
                             1870.42  1903.46  2009.16  2019.24  2056.71
                             2109.79  2122.87  2167.56  2266.68  2303.90
                             2325.16  2488.15  3855.62  4326.93  4382.91
                             4451.43  4487.80  4496.90  4525.56  4549.46
                             4561.45  4567.92  4618.70  4680.00

 Zero-point correction=                           0.191244 (Hartree/Particle)
 Thermal correction to Energy=                    0.205893
 Thermal correction to Enthalpy=                  0.206837
 Thermal correction to Gibbs Free Energy=         0.147686
 Sum of electronic and zero-point Energies=           -862.245488
 Sum of electronic and thermal Energies=              -862.230839
 Sum of electronic and thermal Enthalpies=            -862.229895
 Sum of electronic and thermal Free Energies=         -862.289046

                     E (Thermal)             CV                S
                      KCal/Mol        Cal/Mol-Kelvin    Cal/Mol-Kelvin
 Total                  129.200             52.638            124.495
 Electronic               0.000              0.000              0.000
 Translational            0.889              2.981             41.601
 Rotational               0.889              2.981             32.371
 Vibrational            127.422             46.676             50.523
 Vibration     1          0.593              1.985              6.395
 Vibration     2          0.594              1.981              5.267
 Vibration     3          0.597              1.972              4.373
 Vibration     4          0.601              1.958              3.725
 Vibration     5          0.605              1.946              3.368
 Vibration     6          0.606              1.942              3.280
 Vibration     7          0.611              1.925              2.968
 Vibration     8          0.616              1.910              2.765
 Vibration     9          0.620              1.897              2.609
 Vibration    10          0.632              1.859              2.270
 Vibration    11          0.663              1.762              1.729
 Vibration    12          0.683              1.701              1.503
 Vibration    13          0.731              1.564              1.143
 Vibration    14          0.764              1.475              0.972
 Vibration    15          0.769              1.462              0.950
 Vibration    16          0.804              1.374              0.814
 Vibration    17          0.807              1.364              0.801
 Vibration    18          0.853              1.256              0.664
 Vibration    19          0.900              1.152              0.556
 Vibration    20          0.939              1.071              0.482
 Vibration    21          0.973              1.003              0.426

                           ! Non-Optimized Parameters !
 Normal termination of Gaussian 16 at Thu May 18 23:22:00 2023.
