 Gaussian 16, Revision A.03,
 Gaussian 16:  ES64L-G16RevA.03 25-Dec-2016

 -----------------------------
 # opt freq b3lyp/6-31g(2df,p)
 -----------------------------

 -------------------
 Title Card Required
 -------------------
 Symbolic Z-matrix:
 Charge =  0 Multiplicity = 1

 SCF Done:  E(RB3LYP) =  -804.113312505     A.U. after   29 cycles
 SCF Done:  E(RB3LYP) =  -804.223530191     A.U. after   20 cycles
 SCF Done:  E(RB3LYP) =  -804.353363055     A.U. after   23 cycles
 SCF Done:  E(RB3LYP) =  -804.400403905     A.U. after   25 cycles
 SCF Done:  E(RB3LYP) =  -804.530472941     A.U. after   17 cycles
 SCF Done:  E(RB3LYP) =  -804.676810823     A.U. after   17 cycles
 SCF Done:  E(RB3LYP) =  -804.753376515     A.U. after   17 cycles
 SCF Done:  E(RB3LYP) =  -804.823473118     A.U. after   18 cycles
 SCF Done:  E(RB3LYP) =  -804.833159831     A.U. after   16 cycles
 SCF Done:  E(RB3LYP) =  -804.844819738     A.U. after   15 cycles
 SCF Done:  E(RB3LYP) =  -805.087977632     A.U. after   11 cycles
 SCF Done:  E(RB3LYP) =  -805.088049702     A.U. after   11 cycles
 SCF Done:  E(RB3LYP) =  -805.088090481     A.U. after   10 cycles
 SCF Done:  E(RB3LYP) =  -805.088113922     A.U. after    9 cycles
 SCF Done:  E(RB3LYP) =  -805.088117720     A.U. after    8 cycles
 SCF Done:  E(RB3LYP) =  -805.088119248     A.U. after    8 cycles
 SCF Done:  E(RB3LYP) =  -805.088120040     A.U. after    8 cycles
 SCF Done:  E(RB3LYP) =  -805.088120220     A.U. after    7 cycles
 SCF Done:  E(RB3LYP) =  -805.088120271     A.U. after    7 cycles
 Optimization completed.
    -- Stationary point found.
 Normal termination of Gaussian 16 at Fri May 19 12:02:03 2023.

 ----------------------------------------------------------------------
 #N Geom=AllCheck Guess=TCheck SCRF=Check GenChk RB3LYP/6-31G(2df,p) Fr
 eq
 ----------------------------------------------------------------------

 Structure from the checkpoint file:  "CCdC1CdC2CdCNdCqCNrOCdC2CdCCdCC1.chk"
 -------------------
 Title Card Required
 -------------------
 Charge =  0 Multiplicity = 1

                         Standard orientation:
 ---------------------------------------------------------------------
 Center     Atomic      Atomic             Coordinates (Angstroms)
 Number     Number       Type             X           Y           Z
 ---------------------------------------------------------------------
      1          6           0        5.194388   -1.271260    0.659371
      2          6           0        3.740981   -1.517552    0.402498
      3          6           0        2.738265   -0.613253    0.347668
      4          6           0        1.378728   -1.163081    0.098937
      5          6           0        0.086013   -0.722155    0.011671
      6          6           0       -1.088203   -1.618245   -0.101248
      7          6           0       -1.952154   -1.366593   -1.091238
      8          7           0       -3.338578   -1.368111   -0.885916
      9          6           0       -3.698157   -0.427202   -0.111327
     10          6           0       -5.119334   -0.270867    0.365403
     11          7           0       -5.618931    1.080475    0.102510
     12          8           0       -2.929361    0.572161    0.457820
     13          6           0       -1.685859    1.139638    0.188740
     14          6           0       -0.418569    0.675915    0.093091
     15          6           0        0.764347    1.562683   -0.015702
     16          6           0        1.662053    1.404968    0.960065
     17          6           0        3.034110    0.891265    0.600549
     18          6           0        3.674519    1.631979   -0.549966
     19          6           0        3.968183    1.157402   -1.756396
     20          1           0        5.526469   -1.818423    1.551689
     21          1           0        5.439758   -0.216695    0.788094
     22          1           0        5.799477   -1.651302   -0.173809
     23          1           0        3.480759   -2.563559    0.245147
     24          1           0        1.435102   -2.245409   -0.011564
     25          1           0       -1.469434   -2.061844    0.818252
     26          1           0       -1.619543   -0.943113   -2.037581
     27          1           0       -5.140148   -0.564345    1.430838
     28          1           0       -5.718228   -0.996426   -0.187944
     29          1           0       -5.094398    1.742239    0.665469
     30          1           0       -6.586439    1.144086    0.402539
     31          1           0       -1.814708    2.217663    0.202949
     32          1           0        1.118387    1.767415   -1.025817
     33          1           0        1.310437    1.099046    1.944584
     34          1           0        3.710115    0.968932    1.461556
     35          1           0        3.889521    2.675766   -0.323640
     36          1           0        3.771017    0.127467   -2.033487
     37          1           0        4.423455    1.792817   -2.508697
 ---------------------------------------------------------------------

 SCF Done:  E(RB3LYP) =  -805.088120271     A.U. after    1 cycles

 The electronic state is 1-A.
 Alpha  occ. eigenvalues --  -19.19073 -14.32005 -14.31256 -10.28785 -10.24794
 Alpha  occ. eigenvalues --  -10.21730 -10.20554 -10.20431 -10.20154 -10.20031
 Alpha  occ. eigenvalues --  -10.19884 -10.19134 -10.19081 -10.19024 -10.18523
 Alpha  occ. eigenvalues --  -10.18213 -10.17735 -10.17687 -10.16720  -1.07936
 Alpha  occ. eigenvalues --   -0.92922  -0.88363  -0.85990  -0.82248  -0.79045
 Alpha  occ. eigenvalues --   -0.76519  -0.75441  -0.73067  -0.71772  -0.68390
 Alpha  occ. eigenvalues --   -0.66123  -0.63770  -0.59535  -0.57827  -0.56651
 Alpha  occ. eigenvalues --   -0.55061  -0.52190  -0.51079  -0.50386  -0.48610
 Alpha  occ. eigenvalues --   -0.47716  -0.47047  -0.46840  -0.45934  -0.44324
 Alpha  occ. eigenvalues --   -0.43545  -0.42758  -0.41368  -0.41344  -0.40854
 Alpha  occ. eigenvalues --   -0.39188  -0.38626  -0.38456  -0.37755  -0.37033
 Alpha  occ. eigenvalues --   -0.35696  -0.35001  -0.34262  -0.32501  -0.31497
 Alpha  occ. eigenvalues --   -0.30763  -0.28565  -0.26579  -0.25853  -0.24176
 Alpha  occ. eigenvalues --   -0.23215  -0.22195  -0.19195
 Alpha virt. eigenvalues --   -0.04623  -0.02132  -0.01160   0.01661   0.02787
 Alpha virt. eigenvalues --    0.04924   0.08356   0.09821   0.10235   0.11563
 Alpha virt. eigenvalues --    0.12662   0.12823   0.12966   0.13533   0.14183

 Mulliken charges:
               1
     1  C   -0.449036
     2  C   -0.106621
     3  C    0.259852
     4  C   -0.213811
     5  C    0.193686
     6  C   -0.261760
     7  C   -0.035829
     8  N   -0.299825
     9  C    0.448363
    10  C   -0.231237
    11  N   -0.510475
    12  O   -0.278461
    13  C   -0.054667
    14  C    0.159971
    15  C   -0.218023
    16  C   -0.113815
    17  C   -0.189887
    18  C    0.025503
    19  C   -0.334723
    20  H    0.128548
    21  H    0.130917
    22  H    0.133136
    23  H    0.088670
    24  H    0.087692
    25  H    0.095601
    26  H    0.108681
    27  H    0.103016
    28  H    0.137835
    29  H    0.235506
    30  H    0.231675
    31  H    0.116927
    32  H    0.106693
    33  H    0.096939
    34  H    0.087201
    35  H    0.096236
    36  H    0.114501
    37  H    0.111022
 Sum of Mulliken charges =  -0.00000

 Dipole moment (field-independent basis, Debye):
    X=              1.2618    Y=              0.7795    Z=              1.9242  Tot=              2.4295
 Quadrupole moment (field-independent basis, Debye-Ang):
   XX=            -96.7671   YY=           -111.9346   ZZ=           -110.7429
   XY=             -5.5250   XZ=             -8.9755   YZ=             -0.9860

  Exact polarizability: 328.777 -23.287 164.496   5.823   1.739 134.900
 Approx polarizability: 477.019 -65.982 276.296  26.740  12.842 243.825

                      1                      2                      3
                      A                      A                      A
 Frequencies --     27.3671                54.9635                71.0915
 Red. masses --      4.3745                 3.9988                 3.1672
 Frc consts  --      0.0019                 0.0071                 0.0094
 IR Inten    --      0.7106                 0.4962                 0.8884

                      4                      5                      6
                      A                      A                      A
 Frequencies --     83.0959                93.2189                97.1881
 Red. masses --      4.7842                 3.0886                 1.3252
 Frc consts  --      0.0195                 0.0158                 0.0074
 IR Inten    --      0.4359                 0.4211                 0.1467

                      7                      8                      9
                      A                      A                      A
 Frequencies --    124.7314               140.7004               165.9518
 Red. masses --      2.1931                 3.5232                 3.7225
 Frc consts  --      0.0201                 0.0411                 0.0604
 IR Inten    --      0.1620                 0.1399                 1.3180

                     10                     11                     12
                      A                      A                      A
 Frequencies --    189.3270               203.4954               222.3993
 Red. masses --      2.7747                 2.5335                 1.7362
 Frc consts  --      0.0586                 0.0618                 0.0506
 IR Inten    --      1.1923                 1.8011                26.7290

                     13                     14                     15
                      A                      A                      A
 Frequencies --    242.9194               263.2966               268.8909
 Red. masses --      1.9490                 2.3383                 2.6823
 Frc consts  --      0.0678                 0.0955                 0.1143
 IR Inten    --     22.7203                22.6684                 1.5289

                     16                     17                     18
                      A                      A                      A
 Frequencies --    292.0563               316.6279               325.9066
 Red. masses --      3.8760                 2.7322                 3.3537
 Frc consts  --      0.1948                 0.1614                 0.2099
 IR Inten    --      2.1911                 1.5132                 0.9758

                     19                     20                     21
                      A                      A                      A
 Frequencies --    345.4601               378.9636               416.3486
 Red. masses --      3.1817                 3.2318                 3.4996
 Frc consts  --      0.2237                 0.2735                 0.3574
 IR Inten    --      3.6346                 6.3206                 2.0572

                     22                     23                     24
                      A                      A                      A
 Frequencies --    428.1519               442.0781               471.7735
 Red. masses --      4.1878                 4.6863                 3.7933
 Frc consts  --      0.4523                 0.5396                 0.4974
 IR Inten    --      7.5441                 1.9394                 3.6637

                     25                     26                     27
                      A                      A                      A
 Frequencies --    490.0833               508.7261               580.9119
 Red. masses --      2.9427                 4.2379                 3.6023
 Frc consts  --      0.4164                 0.6462                 0.7162
 IR Inten    --      1.3480                 3.2382                 1.8922

                     28                     29                     30
                      A                      A                      A
 Frequencies --    607.4666               628.4703               645.0859
 Red. masses --      2.7337                 4.5647                 4.0682
 Frc consts  --      0.5944                 1.0623                 0.9974
 IR Inten    --      1.4445                 1.3903                22.7360

                     31                     32                     33
                      A                      A                      A
 Frequencies --    662.3930               698.6654               719.5331
 Red. masses --      4.5457                 3.7320                 3.5139
 Frc consts  --      1.1751                 1.0733                 1.0719
 IR Inten    --      5.0004                44.8203                19.9863

                     34                     35                     36
                      A                      A                      A
 Frequencies --    754.5269               781.8799               788.6745
 Red. masses --      3.7669                 4.0031                 3.7433
 Frc consts  --      1.2635                 1.4419                 1.3718
 IR Inten    --      4.7877                 8.9331                12.1727

                     37                     38                     39
                      A                      A                      A
 Frequencies --    814.9108               838.7172               850.3748
 Red. masses --      2.3005                 1.7869                 1.3101
 Frc consts  --      0.9001                 0.7406                 0.5582
 IR Inten    --     60.2821                10.7724                 7.1124

                     40                     41                     42
                      A                      A                      A
 Frequencies --    864.4403               881.5099               896.4850
 Red. masses --      1.3538                 1.6378                 3.2085
 Frc consts  --      0.5961                 0.7498                 1.5193
 IR Inten    --    122.7268                 5.5702                 4.5897

                     43                     44                     45
                      A                      A                      A
 Frequencies --    917.5460               944.6174               956.9800
 Red. masses --      2.4150                 1.4524                 1.3668
 Frc consts  --      1.1979                 0.7636                 0.7375
 IR Inten    --      9.7845                 9.1289                16.4308

                     46                     47                     48
                      A                      A                      A
 Frequencies --    966.0029               987.3233              1009.6194
 Red. masses --      1.2988                 1.7723                 2.1969
 Frc consts  --      0.7141                 1.0179                 1.3194
 IR Inten    --     42.2685                10.4648                40.5515

                     49                     50                     51
                      A                      A                      A
 Frequencies --   1035.1504              1043.6806              1056.1597
 Red. masses --      1.3823                 1.1519                 1.8712
 Frc consts  --      0.8727                 0.7393                 1.2298
 IR Inten    --      9.5893                10.9418                 3.1337

                     52                     53                     54
                      A                      A                      A
 Frequencies --   1056.6264              1066.6436              1077.2390
 Red. masses --      1.6566                 2.5632                 1.7640
 Frc consts  --      1.0897                 1.7182                 1.2061
 IR Inten    --      4.6693               121.2916                25.8385

                     55                     56                     57
                      A                      A                      A
 Frequencies --   1083.5701              1107.2936              1130.8753
 Red. masses --      3.3177                 1.9339                 3.3926
 Frc consts  --      2.2951                 1.3970                 2.5563
 IR Inten    --      7.3263                32.2288               473.4577

                     58                     59                     60
                      A                      A                      A
 Frequencies --   1140.6557              1175.3848              1197.6137
 Red. masses --      3.9188                 3.5213                 3.2875
 Frc consts  --      3.0041                 2.8663                 2.7781
 IR Inten    --    115.2026                 6.6196                18.7681

                     61                     62                     63
                      A                      A                      A
 Frequencies --   1221.4684              1225.5764              1254.7171
 Red. masses --      1.7079                 2.4846                 1.5366
 Frc consts  --      1.5014                 2.1988                 1.4253
 IR Inten    --     44.3457                88.0139                 2.3837

                     64                     65                     66
                      A                      A                      A
 Frequencies --   1276.4478              1285.9261              1306.7196
 Red. masses --      1.4466                 1.3263                 1.2087
 Frc consts  --      1.3887                 1.2922                 1.2160
 IR Inten    --     30.0552                13.0851                 7.2218

                     67                     68                     69
                      A                      A                      A
 Frequencies --   1320.8779              1329.0463              1336.4694
 Red. masses --      1.2921                 1.2693                 1.4654
 Frc consts  --      1.3282                 1.3210                 1.5421
 IR Inten    --      2.8998                 5.1758                 3.9117

                     70                     71                     72
                      A                      A                      A
 Frequencies --   1347.5314              1353.0147              1407.4501
 Red. masses --      1.4074                 1.3123                 1.2107
 Frc consts  --      1.5058                 1.4154                 1.4130
 IR Inten    --      1.8035                 1.7266                19.2273

                     73                     74                     75
                      A                      A                      A
 Frequencies --   1412.5724              1421.7739              1427.6986
 Red. masses --      1.2531                 1.4738                 1.3454
 Frc consts  --      1.4732                 1.7553                 1.6157
 IR Inten    --     14.8888                24.2172                 5.4296

                     76                     77                     78
                      A                      A                      A
 Frequencies --   1444.7977              1475.2443              1484.6554
 Red. masses --      1.1813                 1.0505                 1.0793
 Frc consts  --      1.4529                 1.3470                 1.4017
 IR Inten    --      5.1546                 4.9529                12.9468

                     79                     80                     81
                      A                      A                      A
 Frequencies --   1490.7266              1589.4468              1621.4406
 Red. masses --      1.0786                 6.4206                 6.9266
 Frc consts  --      1.4123                 9.5569                10.7294
 IR Inten    --      2.3328                14.7301                45.5722

                     82                     83                     84
                      A                      A                      A
 Frequencies --   1647.1486              1655.8211              1664.6578
 Red. masses --      1.1211                 5.5089                 6.4364
 Frc consts  --      1.7921                 8.8989                10.5086
 IR Inten    --     31.4238                 7.9339               135.6456

                     85                     86                     87
                      A                      A                      A
 Frequencies --   1669.5264              1705.5378              1708.2407
 Red. masses --      6.0990                 9.7975                 4.9357
 Frc consts  --     10.0161                16.7914                 8.4859
 IR Inten    --     27.5091               132.6205                 6.4196

                     88                     89                     90
                      A                      A                      A
 Frequencies --   2936.3046              3014.7487              3017.3051
 Red. masses --      1.0721                 1.0789                 1.0450
 Frc consts  --      5.4460                 5.7773                 5.6052
 IR Inten    --     50.4084                14.4665                54.2884

                     91                     92                     93
                      A                      A                      A
 Frequencies --   3057.2709              3116.3598              3118.8091
 Red. masses --      1.0974                 1.0882                 1.0873
 Frc consts  --      6.0432                 6.2266                 6.2315
 IR Inten    --     13.2265                 9.9453                13.6228

                     94                     95                     96
                      A                      A                      A
 Frequencies --   3120.7023              3122.4354              3129.0501
 Red. masses --      1.0867                 1.0878                 1.0865
 Frc consts  --      6.2353                 6.2489                 6.2676
 IR Inten    --      1.0188                 2.8937                17.5559

                     97                     98                     99
                      A                      A                      A
 Frequencies --   3129.9377              3132.5555              3134.8246
 Red. masses --      1.0867                 1.0802                 1.0881
 Frc consts  --      6.2723                 6.2454                 6.3002
 IR Inten    --     12.7160                16.8651                13.8176

                    100                    101                    102
                      A                      A                      A
 Frequencies --   3145.8091              3153.5779              3174.2337
 Red. masses --      1.0933                 1.0688                 1.0888
 Frc consts  --      6.3745                 6.2626                 6.4633
 IR Inten    --     28.7835                 6.8635                11.8315

                    103                    104                    105
                      A                      A                      A
 Frequencies --   3235.1344              3503.5426              3584.2182
 Red. masses --      1.1149                 1.0491                 1.0924
 Frc consts  --      6.8751                 7.5870                 8.2683
 IR Inten    --     11.3024                 0.5623                 0.8197

 - Thermochemistry -
 -------------------
 Temperature   298.150 Kelvin.  Pressure   1.00000 Atm.
 Atom     1 has atomic number  6 and mass  12.00000

 Molecular mass:   254.14191 amu.
 Principal axes and moments of inertia in atomic units:
                           1         2         3
     Eigenvalues --  1728.47300********************
           X            0.99997  -0.00613  -0.00409
           Y            0.00603   0.99972  -0.02293
           Z            0.00423   0.02291   0.99973
 This molecule is an asymmetric top.
 Rotational symmetry number  1.
 Warning -- assumption of classical behavior for rotation
           may cause significant error
 Rotational temperatures (Kelvin)      0.05011     0.00850     0.00785
 Rotational constants (GHZ):           1.04412     0.17716     0.16364
 Zero-point vibrational energy     798765.7 (Joules/Mol)
                                  190.90958 (Kcal/Mol)
 Warning -- explicit consideration of  28 degrees of freedom as
           vibrations may cause significant error
 Vibrational temperatures:     39.38    79.08   102.28   119.56   134.12
          (Kelvin)            139.83   179.46   202.44   238.77   272.40
                              292.78   319.98   349.51   378.83   386.87
                              420.20   455.56   468.91   497.04   545.24
                              599.03   616.02   636.05   678.78   705.12
                              731.94   835.80   874.01   904.23   928.13
                              953.04  1005.22  1035.25  1085.60  1124.95
                             1134.73  1172.47  1206.73  1223.50  1243.74
                             1268.30  1289.84  1320.14  1359.09  1376.88
                             1389.86  1420.54  1452.62  1489.35  1501.62
                             1519.58  1520.25  1534.66  1549.91  1559.02
                             1593.15  1627.08  1641.15  1691.12  1723.10
                             1757.42  1763.33  1805.26  1836.52  1850.16
                             1880.08  1900.45  1912.20  1922.88  1938.80
                             1946.69  2025.01  2032.38  2045.62  2054.14
                             2078.74  2122.55  2136.09  2144.82  2286.86
                             2332.89  2369.88  2382.36  2395.07  2402.08
                             2453.89  2457.78  4224.69  4337.55  4341.23
                             4398.73  4483.75  4487.27  4489.99  4492.49
                             4502.01  4503.28  4507.05  4510.31  4526.12
                             4537.30  4567.01  4654.64  5040.82  5156.89

 Zero-point correction=                           0.304234 (Hartree/Particle)
 Thermal correction to Energy=                    0.322683
 Thermal correction to Enthalpy=                  0.323627
 Thermal correction to Gibbs Free Energy=         0.257780
 Sum of electronic and zero-point Energies=           -804.783886
 Sum of electronic and thermal Energies=              -804.765437
 Sum of electronic and thermal Enthalpies=            -804.764493
 Sum of electronic and thermal Free Energies=         -804.830340

                     E (Thermal)             CV                S
                      KCal/Mol        Cal/Mol-Kelvin    Cal/Mol-Kelvin
 Total                  202.487             70.964            138.586
 Electronic               0.000              0.000              0.000
 Translational            0.889              2.981             42.498
 Rotational               0.889              2.981             33.629
 Vibrational            200.709             65.002             62.459
 Vibration     1          0.593              1.984              6.012
 Vibration     2          0.596              1.976              4.630
 Vibration     3          0.598              1.968              4.123
 Vibration     4          0.600              1.961              3.816
 Vibration     5          0.602              1.954              3.591
 Vibration     6          0.603              1.951              3.510
 Vibration     7          0.610              1.928              3.026
 Vibration     8          0.615              1.913              2.794
 Vibration     9          0.624              1.884              2.481
 Vibration    10          0.633              1.855              2.234
 Vibration    11          0.639              1.835              2.101
 Vibration    12          0.648              1.807              1.939
 Vibration    13          0.659              1.774              1.781
 Vibration    14          0.670              1.740              1.640
 Vibration    15          0.673              1.730              1.603
 Vibration    16          0.687              1.689              1.462
 Vibration    17          0.704              1.642              1.327
 Vibration    18          0.710              1.624              1.280
 Vibration    19          0.724              1.585              1.187
 Vibration    20          0.749              1.515              1.043
 Vibration    21          0.780              1.435              0.904
 Vibration    22          0.790              1.409              0.865
 Vibration    23          0.802              1.378              0.820
 Vibration    24          0.829              1.313              0.733
 Vibration    25          0.846              1.272              0.683
 Vibration    26          0.864              1.231              0.637
 Vibration    27          0.938              1.073              0.484
 Vibration    28          0.966              1.016              0.437

                           ! Non-Optimized Parameters !
 Normal termination of Gaussian 16 at Fri May 19 17:00:12 2023.
