 Gaussian 16, Revision A.03,
 Gaussian 16:  ES64L-G16RevA.03 25-Dec-2016

 -----------------------------
 # opt freq b3lyp/6-31g(2df,p)
 -----------------------------

 -------------------
 Title Card Required
 -------------------
 Symbolic Z-matrix:
 Charge =  0 Multiplicity = 1

 SCF Done:  E(RB3LYP) =  -1522.45783685     A.U. after   20 cycles
 SCF Done:  E(RB3LYP) =  -1522.49042363     A.U. after   15 cycles
 SCF Done:  E(RB3LYP) =  -1522.49770254     A.U. after   15 cycles
 SCF Done:  E(RB3LYP) =  -1522.51020485     A.U. after   14 cycles
 SCF Done:  E(RB3LYP) =  -1522.51424197     A.U. after   14 cycles
 SCF Done:  E(RB3LYP) =  -1522.52488554     A.U. after   14 cycles
 SCF Done:  E(RB3LYP) =  -1522.53311534     A.U. after   14 cycles
 SCF Done:  E(RB3LYP) =  -1522.53721632     A.U. after   13 cycles
 SCF Done:  E(RB3LYP) =  -1522.54147995     A.U. after   13 cycles
 SCF Done:  E(RB3LYP) =  -1522.54330898     A.U. after   14 cycles
 SCF Done:  E(RB3LYP) =  -1522.55224794     A.U. after   12 cycles
 SCF Done:  E(RB3LYP) =  -1522.55230923     A.U. after   11 cycles
 SCF Done:  E(RB3LYP) =  -1522.55237103     A.U. after   11 cycles
 SCF Done:  E(RB3LYP) =  -1522.55242521     A.U. after   11 cycles
 SCF Done:  E(RB3LYP) =  -1522.55248191     A.U. after   11 cycles
 SCF Done:  E(RB3LYP) =  -1522.55250209     A.U. after   11 cycles
 SCF Done:  E(RB3LYP) =  -1522.55250436     A.U. after    9 cycles
 SCF Done:  E(RB3LYP) =  -1522.55250467     A.U. after    8 cycles
 SCF Done:  E(RB3LYP) =  -1522.55250471     A.U. after    7 cycles
 Optimization completed.
    -- Stationary point found.
 Normal termination of Gaussian 16 at Wed May 17 00:02:13 2023.

 ----------------------------------------------------------------------
 #N Geom=AllCheck Guess=TCheck SCRF=Check GenChk RB3LYP/6-31G(2df,p) Fr
 eq
 ----------------------------------------------------------------------

 Structure from the checkpoint file:  "CCdC1CdC[SH]qdSrdCN1CS.chk"
 -------------------
 Title Card Required
 -------------------
 Charge =  0 Multiplicity = 1

                         Standard orientation:
 ---------------------------------------------------------------------
 Center     Atomic      Atomic             Coordinates (Angstroms)
 Number     Number       Type             X           Y           Z
 ---------------------------------------------------------------------
      1          6           0       -3.230575    2.433479    0.371009
      2          6           0       -2.609588    1.254728   -0.308166
      3          6           0       -1.348512    0.795802   -0.224862
      4          6           0       -0.313111    1.433785    0.572045
      5          6           0        0.960799    1.125044    0.845575
      6         16           0        1.961927   -0.223074    0.195860
      7         16           0        3.755014    0.553404   -0.212338
      8          6           0       -0.086999   -0.253731   -1.939661
      9          7           0       -1.009180   -0.380774   -1.015194
     10          6           0       -1.718892   -1.629301   -0.668879
     11         16           0       -1.217044   -2.376108    0.928276
     12          1           0       -4.114181    2.119319    0.939898
     13          1           0       -3.583283    3.155854   -0.375252
     14          1           0       -2.561321    2.955515    1.055368
     15          1           0       -3.281815    0.712353   -0.970047
     16          1           0       -0.648431    2.350872    1.048214
     17          1           0        1.566827    1.783392    1.459472
     18          1           0        2.089603   -0.799539    1.432860
     19          1           0        0.029971   -1.247008   -2.422409
     20          1           0       -1.549760   -2.337753   -1.478570
     21          1           0       -2.789877   -1.448719   -0.565265
     22          1           0       -0.010551   -2.805246    0.510948
 ---------------------------------------------------------------------

 SCF Done:  E(RB3LYP) =  -1522.55250471     A.U. after    1 cycles

 The electronic state is 1-A.
 Alpha  occ. eigenvalues --  -88.97057 -88.89766 -88.81896 -14.40932 -10.27585
 Alpha  occ. eigenvalues --  -10.25227 -10.23042 -10.22642 -10.22508 -10.21190
 Alpha  occ. eigenvalues --  -10.19885  -8.02491  -7.96383  -7.88536  -5.98809
 Alpha  occ. eigenvalues --   -5.98743  -5.98279  -5.92826  -5.92491  -5.91902
 Alpha  occ. eigenvalues --   -5.85272  -5.84244  -5.84123  -0.99154  -0.85632
 Alpha  occ. eigenvalues --   -0.83204  -0.79967  -0.77429  -0.72472  -0.68978
 Alpha  occ. eigenvalues --   -0.63946  -0.62820  -0.60266  -0.53771  -0.51969
 Alpha  occ. eigenvalues --   -0.50401  -0.47874  -0.46651  -0.45181  -0.44231
 Alpha  occ. eigenvalues --   -0.43959  -0.43343  -0.41114  -0.40029  -0.37991
 Alpha  occ. eigenvalues --   -0.37391  -0.35368  -0.33749  -0.31409  -0.27406
 Alpha  occ. eigenvalues --   -0.25619  -0.21486  -0.21158  -0.19944
 Alpha virt. eigenvalues --   -0.06562  -0.03358  -0.00593   0.00696   0.02192
 Alpha virt. eigenvalues --    0.03261   0.05466   0.05624   0.07780   0.08592
 Alpha virt. eigenvalues --    0.09347   0.10940   0.13659   0.14128   0.14784

 Mulliken charges:
               1
     1  C   -0.450449
     2  C   -0.088880
     3  C    0.290634
     4  C   -0.058227
     5  C   -0.161561
     6  S    0.107836
     7  S   -0.415476
     8  C   -0.332601
     9  N    0.005644
    10  C   -0.185783
    11  S   -0.238593
    12  H    0.142626
    13  H    0.149570
    14  H    0.139023
    15  H    0.105461
    16  H    0.117842
    17  H    0.150272
    18  H    0.153700
    19  H    0.090481
    20  H    0.156684
    21  H    0.149913
    22  H    0.171885
 Sum of Mulliken charges =  -0.00000

 Dipole moment (field-independent basis, Debye):
    X=             -7.1328    Y=             -0.8200    Z=              2.0463  Tot=              7.4657
 Quadrupole moment (field-independent basis, Debye-Ang):
   XX=            -97.2655   YY=            -82.5294   ZZ=            -91.4836
   XY=             -8.7512   XZ=              8.0296   YZ=              6.6413

  Exact polarizability: 215.839 -12.674 128.280  -3.543   1.104 111.267
 Approx polarizability: 350.640 -17.418 191.993  -7.571  -6.655 191.444

                      1                      2                      3
                      A                      A                      A
 Frequencies --     30.0118                39.5822                54.4269
 Red. masses --      9.1411                 4.1857                 7.9102
 Frc consts  --      0.0049                 0.0039                 0.0138
 IR Inten    --      0.6972                 0.2112                 3.1719

                      4                      5                      6
                      A                      A                      A
 Frequencies --     66.0584               110.5515               117.0642
 Red. masses --      6.1382                 1.0488                 6.0962
 Frc consts  --      0.0158                 0.0076                 0.0492
 IR Inten    --      2.8215                 0.4771                 4.8163

                      7                      8                      9
                      A                      A                      A
 Frequencies --    136.8827               176.7418               201.7565
 Red. masses --      4.8932                 3.9364                 2.9674
 Frc consts  --      0.0540                 0.0724                 0.0712
 IR Inten    --      1.1709                 5.7715                 2.7680

                     10                     11                     12
                      A                      A                      A
 Frequencies --    222.6809               254.6477               270.2027
 Red. masses --      4.5362                 3.0647                 1.3077
 Frc consts  --      0.1325                 0.1171                 0.0563
 IR Inten    --      4.3702                 3.7598                25.1507

                     13                     14                     15
                      A                      A                      A
 Frequencies --    330.4602               397.6438               429.1105
 Red. masses --      3.3125                 2.9166                 3.8630
 Frc consts  --      0.2131                 0.2717                 0.4191
 IR Inten    --      2.2950                 1.4499                15.9555

                     16                     17                     18
                      A                      A                      A
 Frequencies --    480.5454               551.7639               564.1111
 Red. masses --      5.1779                17.2348                 3.3561
 Frc consts  --      0.7045                 3.0915                 0.6292
 IR Inten    --      1.6112                63.0274                 5.7745

                     19                     20                     21
                      A                      A                      A
 Frequencies --    610.5967               630.6250               685.2674
 Red. masses --      2.7528                 3.4926                 3.4697
 Frc consts  --      0.6047                 0.8183                 0.9600
 IR Inten    --     39.0476                 8.5122                15.6469

                     22                     23                     24
                      A                      A                      A
 Frequencies --    698.6567               752.5350               783.5314
 Red. masses --      3.4344                 1.7852                 2.1893
 Frc consts  --      0.9877                 0.5957                 0.7919
 IR Inten    --     12.5188                 3.2854                 3.4295

                     25                     26                     27
                      A                      A                      A
 Frequencies --    807.5469               818.1820               872.9474
 Red. masses --      1.5767                 1.3426                 1.2313
 Frc consts  --      0.6058                 0.5295                 0.5528
 IR Inten    --      5.3227                19.0513                 8.3002

                     28                     29                     30
                      A                      A                      A
 Frequencies --    880.8280               951.0933               974.3612
 Red. masses --      1.2328                 1.1804                 1.5071
 Frc consts  --      0.5636                 0.6291                 0.8430
 IR Inten    --      7.1316               113.0891                17.8924

                     31                     32                     33
                      A                      A                      A
 Frequencies --    983.2736               998.7224              1042.8691
 Red. masses --      2.4786                 1.5647                 1.5141
 Frc consts  --      1.4119                 0.9195                 0.9702
 IR Inten    --      3.2553                17.6794                15.3794

                     34                     35                     36
                      A                      A                      A
 Frequencies --   1061.1471              1096.3104              1195.4161
 Red. masses --      1.5569                 2.6333                 1.7613
 Frc consts  --      1.0329                 1.8647                 1.4830
 IR Inten    --      0.0638                12.2378                 6.3221

                     37                     38                     39
                      A                      A                      A
 Frequencies --   1233.2417              1279.8558              1297.4372
 Red. masses --      1.0623                 1.2185                 1.3170
 Frc consts  --      0.9519                 1.1759                 1.3062
 IR Inten    --      3.0191                12.9603                 8.1292

                     40                     41                     42
                      A                      A                      A
 Frequencies --   1338.1880              1360.3171              1408.9214
 Red. masses --      1.3261                 1.5078                 1.7194
 Frc consts  --      1.3991                 1.6439                 2.0109
 IR Inten    --     20.0567                 8.5900                 7.8166

                     43                     44                     45
                      A                      A                      A
 Frequencies --   1416.5448              1455.7295              1474.7870
 Red. masses --      1.2467                 1.1055                 1.0459
 Frc consts  --      1.4740                 1.3803                 1.3403
 IR Inten    --      0.6760                15.2413                 7.5379

                     46                     47                     48
                      A                      A                      A
 Frequencies --   1485.2388              1491.7801              1651.2769
 Red. masses --      1.2071                 3.0953                 7.1499
 Frc consts  --      1.5688                 4.0584                11.4865
 IR Inten    --     17.5753                22.4013                 0.9318

                     49                     50                     51
                      A                      A                      A
 Frequencies --   1701.8446              2415.2456              2672.2519
 Red. masses --      6.3130                 1.0390                 1.0385
 Frc consts  --     10.7727                 3.5709                 4.3693
 IR Inten    --      6.4516                45.2614                 1.2624

                     52                     53                     54
                      A                      A                      A
 Frequencies --   2920.8242              3029.0083              3073.3450
 Red. masses --      1.0836                 1.0407                 1.0984
 Frc consts  --      5.4467                 5.6259                 6.1127
 IR Inten    --     88.5907                18.6888                 8.9269

                     55                     56                     57
                      A                      A                      A
 Frequencies --   3088.8900              3134.1924              3152.3667
 Red. masses --      1.0575                 1.0933                 1.0913
 Frc consts  --      5.9447                 6.3275                 6.3897
 IR Inten    --      7.3940                 3.0148                13.0568

                     58                     59                     60
                      A                      A                      A
 Frequencies --   3156.9254              3165.7326              3187.5700
 Red. masses --      1.1075                 1.0829                 1.0938
 Frc consts  --      6.5029                 6.3944                 6.5483
 IR Inten    --      0.5062                10.1429                 6.2201

 - Thermochemistry -
 -------------------
 Temperature   298.150 Kelvin.  Pressure   1.00000 Atm.
 Atom     1 has atomic number  6 and mass  12.00000

 Molecular mass:   205.00536 amu.
 Principal axes and moments of inertia in atomic units:
                           1         2         3
     Eigenvalues --  1933.803803944.671384967.21978
           X            0.99915  -0.04077   0.00612
           Y            0.04046   0.99820   0.04434
           Z           -0.00792  -0.04406   0.99900
 This molecule is an asymmetric top.
 Rotational symmetry number  1.
 Warning -- assumption of classical behavior for rotation
           may cause significant error
 Rotational temperatures (Kelvin)      0.04479     0.02196     0.01744
 Rotational constants (GHZ):           0.93326     0.45751     0.36333
 Zero-point vibrational energy     429876.1 (Joules/Mol)
                                  102.74285 (Kcal/Mol)
 Warning -- explicit consideration of  19 degrees of freedom as
           vibrations may cause significant error
 Vibrational temperatures:     43.18    56.95    78.31    95.04   159.06
          (Kelvin)            168.43   196.94   254.29   290.28   320.39
                              366.38   388.76   475.46   572.12   617.39
                              691.40   793.87   811.63   878.51   907.33
                              985.95  1005.21  1082.73  1127.33  1161.88
                             1177.18  1255.98  1267.32  1368.41  1401.89
                             1414.71  1436.94  1500.46  1526.75  1577.35
                             1719.94  1774.36  1841.43  1866.72  1925.35
                             1957.19  2027.12  2038.09  2094.47  2121.89
                             2136.93  2146.34  2375.82  2448.57  3475.00
                             3844.77  4202.41  4358.07  4421.86  4444.22
                             4509.40  4535.55  4542.11  4554.78  4586.20

 Zero-point correction=                           0.163731 (Hartree/Particle)
 Thermal correction to Energy=                    0.177550
 Thermal correction to Enthalpy=                  0.178494
 Thermal correction to Gibbs Free Energy=         0.120886
 Sum of electronic and zero-point Energies=          -1522.388774
 Sum of electronic and thermal Energies=             -1522.374954
 Sum of electronic and thermal Enthalpies=           -1522.374010
 Sum of electronic and thermal Free Energies=        -1522.431619

                     E (Thermal)             CV                S
                      KCal/Mol        Cal/Mol-Kelvin    Cal/Mol-Kelvin
 Total                  111.414             48.208            121.247
 Electronic               0.000              0.000              0.000
 Translational            0.889              2.981             41.858
 Rotational               0.889              2.981             32.005
 Vibrational            109.637             42.246             47.384
 Vibration     1          0.594              1.984              5.829
 Vibration     2          0.594              1.981              5.280
 Vibration     3          0.596              1.976              4.650
 Vibration     4          0.597              1.970              4.267
 Vibration     5          0.606              1.941              3.259
 Vibration     6          0.608              1.935              3.148
 Vibration     7          0.614              1.916              2.847
 Vibration     8          0.628              1.871              2.363
 Vibration     9          0.639              1.837              2.117
 Vibration    10          0.648              1.807              1.937
 Vibration    11          0.665              1.755              1.698
 Vibration    12          0.674              1.728              1.595
 Vibration    13          0.713              1.615              1.258
 Vibration    14          0.764              1.475              0.971
 Vibration    15          0.790              1.407              0.862
 Vibration    16          0.837              1.293              0.709
 Vibration    17          0.907              1.136              0.541
 Vibration    18          0.920              1.109              0.516
 Vibration    19          0.970              1.009              0.432

 Optimization completed.
    -- Stationary point found.
 Normal termination of Gaussian 16 at Wed May 17 00:51:09 2023.
