 Gaussian 16, Revision A.03,
 Gaussian 16:  ES64L-G16RevA.03 25-Dec-2016

 -----------------------------
 # opt freq b3lyp/6-31g(2df,p)
 -----------------------------

 -------------------
 Title Card Required
 -------------------
 Symbolic Z-matrix:
 Charge =  0 Multiplicity = 1

 SCF Done:  E(RB3LYP) =  -705.159930738     A.U. after   27 cycles
 SCF Done:  E(RB3LYP) =  -704.395422852     A.U. after   25 cycles
 SCF Done:  E(RB3LYP) =  -705.260498819     A.U. after   20 cycles
 SCF Done:  E(RB3LYP) =  -705.277264531     A.U. after   16 cycles
 SCF Done:  E(RB3LYP) =  -705.309299395     A.U. after   16 cycles
 SCF Done:  E(RB3LYP) =  -705.343117064     A.U. after   16 cycles
 SCF Done:  E(RB3LYP) =  -705.349784338     A.U. after   17 cycles
 SCF Done:  E(RB3LYP) =  -705.400444955     A.U. after   16 cycles
 SCF Done:  E(RB3LYP) =  -705.096075196     A.U. after   19 cycles
 SCF Done:  E(RB3LYP) =  -705.392860785     A.U. after   16 cycles
 SCF Done:  E(RB3LYP) =  -705.610726579     A.U. after   10 cycles
 SCF Done:  E(RB3LYP) =  -705.610793232     A.U. after   11 cycles
 SCF Done:  E(RB3LYP) =  -705.610824483     A.U. after   10 cycles
 SCF Done:  E(RB3LYP) =  -705.610841276     A.U. after    9 cycles
 SCF Done:  E(RB3LYP) =  -705.610851759     A.U. after    8 cycles
 SCF Done:  E(RB3LYP) =  -705.610856842     A.U. after    8 cycles
 SCF Done:  E(RB3LYP) =  -705.610858769     A.U. after    7 cycles
 SCF Done:  E(RB3LYP) =  -705.610859283     A.U. after    7 cycles
 SCF Done:  E(RB3LYP) =  -705.610859466     A.U. after    7 cycles
 Optimization completed.
    -- Stationary point found.
 Normal termination of Gaussian 16 at Sat May 20 05:19:45 2023.

 ----------------------------------------------------------------------
 #N Geom=AllCheck Guess=TCheck SCRF=Check GenChk RB3LYP/6-31G(2df,p) Fr
 eq
 ----------------------------------------------------------------------

 Structure from the checkpoint file:  "CCN1CC2dCCdCNOC2dCCdCCdN1.chk"
 -------------------
 Title Card Required
 -------------------
 Charge =  0 Multiplicity = 1

                         Standard orientation:
 ---------------------------------------------------------------------
 Center     Atomic      Atomic             Coordinates (Angstroms)
 Number     Number       Type             X           Y           Z
 ---------------------------------------------------------------------
      1          6           0       -2.785179    1.623318   -1.716587
      2          6           0       -1.945282    1.961519   -0.488556
      3          7           0       -1.461500    0.763341    0.207211
      4          6           0       -0.409384    1.117922    1.209124
      5          6           0        0.968002    0.641420    0.738614
      6          6           0        1.968781    1.531084    0.513387
      7          6           0        3.299290    1.291161    0.009627
      8          6           0        3.832338    0.112804   -0.376580
      9          7           0        3.171564   -1.105405   -0.376725
     10          8           0        1.804398   -1.055918   -0.807818
     11          6           0        0.980388   -0.739924    0.265035
     12          6           0       -0.070633   -1.516658    0.581172
     13          6           0       -0.882993   -2.382135   -0.238827
     14          6           0       -2.208927   -2.124358   -0.234905
     15          6           0       -2.881129   -1.073325    0.564191
     16          7           0       -2.623383    0.154055    0.849914
     17          1           0       -3.059155    2.538801   -2.250793
     18          1           0       -3.707921    1.109951   -1.433722
     19          1           0       -2.225447    0.974868   -2.397152
     20          1           0       -2.519905    2.611417    0.194636
     21          1           0       -1.051615    2.512125   -0.801049
     22          1           0       -0.688405    0.683453    2.175247
     23          1           0       -0.378678    2.202418    1.370822
     24          1           0        1.756929    2.569819    0.758661
     25          1           0        3.962083    2.148813   -0.024240
     26          1           0        4.883252    0.036243   -0.641078
     27          1           0        3.593557   -1.818384   -0.958032
     28          1           0       -0.623420   -1.156726    1.435343
     29          1           0       -0.463799   -3.143777   -0.889131
     30          1           0       -2.885899   -2.757934   -0.803843
     31          1           0       -3.825167   -1.404649    1.009919
 ---------------------------------------------------------------------

 SCF Done:  E(RB3LYP) =  -705.610859466     A.U. after    1 cycles

 The electronic state is 1-A.
 Alpha  occ. eigenvalues --  -19.18610 -14.39607 -14.34090 -14.33252 -10.23233
 Alpha  occ. eigenvalues --  -10.22641 -10.22138 -10.20748 -10.20289 -10.19537
 Alpha  occ. eigenvalues --  -10.19336 -10.18633 -10.18556 -10.17782 -10.17771
 Alpha  occ. eigenvalues --  -10.16217  -1.08839  -0.96168  -0.88735  -0.84510
 Alpha  occ. eigenvalues --   -0.82437  -0.79127  -0.75090  -0.72601  -0.71623
 Alpha  occ. eigenvalues --   -0.66558  -0.63463  -0.61381  -0.59341  -0.55886
 Alpha  occ. eigenvalues --   -0.54922  -0.52955  -0.51911  -0.49475  -0.47855
 Alpha  occ. eigenvalues --   -0.46632  -0.45184  -0.44994  -0.44008  -0.42974
 Alpha  occ. eigenvalues --   -0.41460  -0.41096  -0.39928  -0.38115  -0.37614
 Alpha  occ. eigenvalues --   -0.36543  -0.36034  -0.35103  -0.33604  -0.33402
 Alpha  occ. eigenvalues --   -0.32666  -0.30039  -0.29657  -0.28822  -0.27033
 Alpha  occ. eigenvalues --   -0.22495  -0.19126  -0.18521
 Alpha virt. eigenvalues --   -0.06137  -0.02619   0.03118   0.06301   0.07159
 Alpha virt. eigenvalues --    0.07682   0.10348   0.10699   0.12277   0.12783
 Alpha virt. eigenvalues --    0.13492   0.14368   0.15057   0.15976   0.16463

 Mulliken charges:
               1
     1  C   -0.388099
     2  C   -0.095788
     3  N   -0.099556
     4  C   -0.281226
     5  C    0.224497
     6  C   -0.193243
     7  C   -0.089878
     8  C   -0.007587
     9  N   -0.250687
    10  O   -0.281316
    11  C    0.289113
    12  C   -0.195263
    13  C   -0.114153
    14  C   -0.086439
    15  C    0.012120
    16  N   -0.182130
    17  H    0.107253
    18  H    0.122070
    19  H    0.120922
    20  H    0.083826
    21  H    0.100475
    22  H    0.122753
    23  H    0.096002
    24  H    0.087844
    25  H    0.089790
    26  H    0.113770
    27  H    0.259540
    28  H    0.112598
    29  H    0.110886
    30  H    0.102390
    31  H    0.109515
 Sum of Mulliken charges =  -0.00000

 Dipole moment (field-independent basis, Debye):
    X=              1.7729    Y=             -0.9971    Z=             -1.0238  Tot=              2.2772
 Quadrupole moment (field-independent basis, Debye-Ang):
   XX=            -83.5235   YY=            -85.8213   ZZ=            -95.6011
   XY=              1.9706   XZ=             -2.2778   YZ=              2.7182

  Exact polarizability: 238.966  25.925 166.753 -13.847  11.665  99.972
 Approx polarizability: 388.147  56.637 288.848 -35.438  23.529 165.605

                      1                      2                      3
                      A                      A                      A
 Frequencies --     55.1469                62.0112                92.0798
 Red. masses --      3.7762                 4.1573                 4.7433
 Frc consts  --      0.0068                 0.0094                 0.0237
 IR Inten    --      0.3833                 0.1325                 0.2754

                      4                      5                      6
                      A                      A                      A
 Frequencies --    114.1903               124.1659               191.9618
 Red. masses --      2.7490                 2.5676                 3.1321
 Frc consts  --      0.0211                 0.0233                 0.0680
 IR Inten    --      1.5187                 0.0489                 6.8508

                      7                      8                      9
                      A                      A                      A
 Frequencies --    233.1530               239.2881               261.3152
 Red. masses --      2.7837                 1.7909                 2.7408
 Frc consts  --      0.0892                 0.0604                 0.1103
 IR Inten    --      0.9640                 1.3636                 2.4721

                     10                     11                     12
                      A                      A                      A
 Frequencies --    269.5732               304.8240               319.1087
 Red. masses --      3.6038                 5.0981                 4.7484
 Frc consts  --      0.1543                 0.2791                 0.2849
 IR Inten    --      0.4821                 0.6923                 0.5566

                     13                     14                     15
                      A                      A                      A
 Frequencies --    334.4980               360.6376               410.5915
 Red. masses --      4.0244                 3.4075                 4.4128
 Frc consts  --      0.2653                 0.2611                 0.4383
 IR Inten    --      1.1194                25.9734                22.0110

                     16                     17                     18
                      A                      A                      A
 Frequencies --    451.8732               458.2303               514.0383
 Red. masses --      3.4607                 2.1023                 3.9529
 Frc consts  --      0.4163                 0.2601                 0.6154
 IR Inten    --     15.8185                 7.3500                10.2381

                     19                     20                     21
                      A                      A                      A
 Frequencies --    544.3080               554.7953               566.8470
 Red. masses --      3.2056                 3.7472                 4.0007
 Frc consts  --      0.5596                 0.6796                 0.7574
 IR Inten    --     38.1255                23.0354                16.9369

                     22                     23                     24
                      A                      A                      A
 Frequencies --    583.6343               617.9748               663.5248
 Red. masses --      2.5263                 3.7617                 3.7546
 Frc consts  --      0.5070                 0.8464                 0.9739
 IR Inten    --     25.9869                11.6537                31.2508

                     25                     26                     27
                      A                      A                      A
 Frequencies --    727.4163               748.3340               767.0678
 Red. masses --      2.6151                 1.5790                 1.8961
 Frc consts  --      0.8153                 0.5210                 0.6573
 IR Inten    --     10.4198                32.4546                 5.8146

                     28                     29                     30
                      A                      A                      A
 Frequencies --    781.9480               793.5824               821.6023
 Red. masses --      4.4362                 2.0522                 1.9812
 Frc consts  --      1.5982                 0.7615                 0.7879
 IR Inten    --     51.6821                10.1016                12.8004

                     31                     32                     33
                      A                      A                      A
 Frequencies --    860.5477               867.3457               887.0069
 Red. masses --      3.1948                 3.3984                 2.4295
 Frc consts  --      1.3940                 1.5063                 1.1262
 IR Inten    --      9.5598                 4.4222                 8.8721

                     34                     35                     36
                      A                      A                      A
 Frequencies --    910.5614               927.7262               940.4481
 Red. masses --      1.4645                 1.5664                 1.8104
 Frc consts  --      0.7154                 0.7943                 0.9434
 IR Inten    --      7.0912                 1.6197                10.6427

                     37                     38                     39
                      A                      A                      A
 Frequencies --    961.3907               970.4913               971.7610
 Red. masses --      2.4745                 1.7623                 1.8563
 Frc consts  --      1.3475                 0.9779                 1.0328
 IR Inten    --     10.6727                11.1532                12.7005

                     40                     41                     42
                      A                      A                      A
 Frequencies --    991.2082              1002.0475              1010.7851
 Red. masses --      1.9483                 1.8822                 2.3473
 Frc consts  --      1.1278                 1.1135                 1.4130
 IR Inten    --     24.4707                25.7773                 6.7195

                     43                     44                     45
                      A                      A                      A
 Frequencies --   1027.5717              1071.8118              1098.2459
 Red. masses --      2.3653                 3.4430                 2.4913
 Frc consts  --      1.4715                 2.3304                 1.7704
 IR Inten    --     10.8284                20.7057                29.3156

                     46                     47                     48
                      A                      A                      A
 Frequencies --   1122.7355              1128.9055              1153.3711
 Red. masses --      1.9456                 2.8570                 2.1007
 Frc consts  --      1.4449                 2.1452                 1.6465
 IR Inten    --     19.2261                 9.9799                 4.3873

                     49                     50                     51
                      A                      A                      A
 Frequencies --   1191.1114              1193.4054              1230.7201
 Red. masses --      1.4075                 1.8061                 2.4004
 Frc consts  --      1.1765                 1.5155                 2.1422
 IR Inten    --      4.8206                 8.8975                12.9099

                     52                     53                     54
                      A                      A                      A
 Frequencies --   1265.5778              1270.0277              1323.2077
 Red. masses --      1.3508                 1.2131                 1.1380
 Frc consts  --      1.2747                 1.1529                 1.1739
 IR Inten    --     15.0577                 7.9633                 6.3412

                     55                     56                     57
                      A                      A                      A
 Frequencies --   1340.0014              1376.0522              1388.9276
 Red. masses --      1.2730                 1.2680                 1.2594
 Frc consts  --      1.3467                 1.4146                 1.4314
 IR Inten    --     11.0244                20.4234                 2.9570

                     58                     59                     60
                      A                      A                      A
 Frequencies --   1396.9896              1408.3656              1413.8705
 Red. masses --      1.2671                 1.4911                 1.5268
 Frc consts  --      1.4570                 1.7426                 1.7983
 IR Inten    --      1.6503                 8.2340                14.0293

                     61                     62                     63
                      A                      A                      A
 Frequencies --   1417.7448              1445.9046              1474.2600
 Red. masses --      1.4221                 1.4000                 1.5087
 Frc consts  --      1.6841                 1.7245                 1.9320
 IR Inten    --     12.1030                 0.6110                 3.0584

                     64                     65                     66
                      A                      A                      A
 Frequencies --   1475.9677              1487.0874              1497.1290
 Red. masses --      1.0797                 1.0437                 1.0793
 Frc consts  --      1.3858                 1.3598                 1.4253
 IR Inten    --      0.6887                 6.2439                 6.1298

                     67                     68                     69
                      A                      A                      A
 Frequencies --   1509.8819              1605.9893              1624.1280
 Red. masses --      1.0556                 7.3203                 7.5360
 Frc consts  --      1.4178                11.1241                11.7120
 IR Inten    --      1.6917                48.6353                21.2180

                     70                     71                     72
                      A                      A                      A
 Frequencies --   1641.7900              1679.9237              1691.5621
 Red. masses --      7.0088                 5.7256                 5.4759
 Frc consts  --     11.1309                 9.5203                 9.2317
 IR Inten    --     17.4888                46.9270                31.7388

                     73                     74                     75
                      A                      A                      A
 Frequencies --   2949.4560              3018.8663              3040.5896
 Red. masses --      1.0695                 1.0603                 1.0354
 Frc consts  --      5.4819                 5.6935                 5.6399
 IR Inten    --     70.7016                39.4679                22.8704

                     76                     77                     78
                      A                      A                      A
 Frequencies --   3057.2762              3065.5966              3069.8870
 Red. masses --      1.0996                 1.0930                 1.0844
 Frc consts  --      6.0557                 6.0519                 6.0214
 IR Inten    --      7.6641                16.5733                42.7971

                     79                     80                     81
                      A                      A                      A
 Frequencies --   3110.4640              3122.2913              3141.8607
 Red. masses --      1.1009                 1.1019                 1.0862
 Frc consts  --      6.2754                 6.3291                 6.3175
 IR Inten    --     30.6125                21.6728                16.2853

                     82                     83                     84
                      A                      A                      A
 Frequencies --   3149.3680              3166.5370              3180.0779
 Red. masses --      1.0847                 1.0863                 1.0941
 Frc consts  --      6.3389                 6.4173                 6.5192
 IR Inten    --      4.7022                 2.4359                23.4050

                     85                     86                     87
                      A                      A                      A
 Frequencies --   3192.1290              3227.0028              3573.0278
 Red. masses --      1.0933                 1.0838                 1.0770
 Frc consts  --      6.5639                 6.6498                 8.1013
 IR Inten    --     21.7526                 5.1702                22.5933

 - Thermochemistry -
 -------------------
 Temperature   298.150 Kelvin.  Pressure   1.00000 Atm.
 Atom     1 has atomic number  6 and mass  12.00000

 Molecular mass:   217.12151 amu.
 Principal axes and moments of inertia in atomic units:
                           1         2         3
     Eigenvalues --  1961.958354451.304375505.88651
           X            0.99996  -0.00369   0.00863
           Y            0.00372   0.99998  -0.00409
           Z           -0.00862   0.00412   0.99995
 This molecule is an asymmetric top.
 Rotational symmetry number  1.
 Warning -- assumption of classical behavior for rotation
           may cause significant error
 Rotational temperatures (Kelvin)      0.04415     0.01946     0.01573
 Rotational constants (GHZ):           0.91987     0.40544     0.32778
 Zero-point vibrational energy     671617.9 (Joules/Mol)
                                  160.52052 (Kcal/Mol)
 Warning -- explicit consideration of  23 degrees of freedom as
           vibrations may cause significant error
 Vibrational temperatures:     79.34    89.22   132.48   164.29   178.65
          (Kelvin)            276.19   335.46   344.28   375.97   387.86
                              438.57   459.13   481.27   518.88   590.75
                              650.14   659.29   739.59   783.14   798.23
                              815.57   839.72   889.13   954.66  1046.59
                             1076.69  1103.64  1125.05  1141.79  1182.10
                             1238.14  1247.92  1276.21  1310.09  1334.79
                             1353.09  1383.23  1396.32  1398.15  1426.13
                             1441.72  1454.29  1478.45  1542.10  1580.13
                             1615.37  1624.24  1659.44  1713.74  1717.04
                             1770.73  1820.88  1827.29  1903.80  1927.96
                             1979.83  1998.36  2009.96  2026.32  2034.24
                             2039.82  2080.33  2121.13  2123.59  2139.59
                             2154.03  2172.38  2310.66  2336.76  2362.17
                             2417.04  2433.78  4243.61  4343.48  4374.73
                             4398.74  4410.71  4416.88  4475.26  4492.28
                             4520.44  4531.24  4555.94  4575.42  4592.76
                             4642.94  5140.79

 Zero-point correction=                           0.255806 (Hartree/Particle)
 Thermal correction to Energy=                    0.269934
 Thermal correction to Enthalpy=                  0.270878
 Thermal correction to Gibbs Free Energy=         0.215315
 Sum of electronic and zero-point Energies=           -705.355054
 Sum of electronic and thermal Energies=              -705.340926
 Sum of electronic and thermal Enthalpies=            -705.339981
 Sum of electronic and thermal Free Energies=         -705.395545

                     E (Thermal)             CV                S
                      KCal/Mol        Cal/Mol-Kelvin    Cal/Mol-Kelvin
 Total                  169.386             56.595            116.943
 Electronic               0.000              0.000              0.000
 Translational            0.889              2.981             42.029
 Rotational               0.889              2.981             32.242
 Vibrational            167.609             50.633             42.672
 Vibration     1          0.596              1.976              4.624
 Vibration     2          0.597              1.972              4.392
 Vibration     3          0.602              1.955              3.615
 Vibration     4          0.607              1.938              3.196
 Vibration     5          0.610              1.929              3.034
 Vibration     6          0.634              1.851              2.209
 Vibration     7          0.654              1.790              1.855
 Vibration     8          0.657              1.780              1.808
 Vibration     9          0.669              1.744              1.653
 Vibration    10          0.674              1.729              1.599
 Vibration    11          0.696              1.665              1.390
 Vibration    12          0.705              1.637              1.315
 Vibration    13          0.716              1.607              1.238
 Vibration    14          0.735              1.553              1.119
 Vibration    15          0.775              1.447              0.925
 Vibration    16          0.811              1.357              0.790
 Vibration    17          0.816              1.343              0.771
 Vibration    18          0.869              1.219              0.624
 Vibration    19          0.899              1.152              0.556
 Vibration    20          0.910              1.129              0.534
 Vibration    21          0.923              1.103              0.510
 Vibration    22          0.941              1.067              0.479
 Vibration    23          0.978              0.994              0.420

                           ! Non-Optimized Parameters !
 Normal termination of Gaussian 16 at Sat May 20 08:16:38 2023.
