 Gaussian 16, Revision A.03,
 Gaussian 16:  ES64L-G16RevA.03 25-Dec-2016

 -----------------------------
 # opt freq b3lyp/6-31g(2df,p)
 -----------------------------

 -------------------
 Title Card Required
 -------------------
 Symbolic Z-matrix:
 Charge =  0 Multiplicity = 1

 SCF Done:  E(RB3LYP) =  -872.655334448     A.U. after   16 cycles
 SCF Done:  E(RB3LYP) =  -872.667264000     A.U. after   13 cycles
 SCF Done:  E(RB3LYP) =  -872.668945664     A.U. after   13 cycles
 SCF Done:  E(RB3LYP) =  -872.669560693     A.U. after   13 cycles
 SCF Done:  E(RB3LYP) =  -872.670192122     A.U. after   14 cycles
 SCF Done:  E(RB3LYP) =  -872.670556554     A.U. after   13 cycles
 SCF Done:  E(RB3LYP) =  -872.670890613     A.U. after   13 cycles
 SCF Done:  E(RB3LYP) =  -872.670937843     A.U. after   11 cycles
 SCF Done:  E(RB3LYP) =  -872.670971365     A.U. after   12 cycles
 SCF Done:  E(RB3LYP) =  -872.670979009     A.U. after    9 cycles
 SCF Done:  E(RB3LYP) =  -872.670980852     A.U. after    8 cycles
 SCF Done:  E(RB3LYP) =  -872.670981290     A.U. after    8 cycles
 SCF Done:  E(RB3LYP) =  -872.670981353     A.U. after    8 cycles
 Optimization completed.
    -- Stationary point found.
 Normal termination of Gaussian 16 at Fri May 19 22:19:17 2023.

 ----------------------------------------------------------------------
 #N Geom=AllCheck Guess=TCheck SCRF=Check GenChk RB3LYP/6-31G(2df,p) Fr
 eq
 ----------------------------------------------------------------------

 Structure from the checkpoint file:  "CCN1CdNCdC2CdCNdC2S1.chk"
 -------------------
 Title Card Required
 -------------------
 Charge =  0 Multiplicity = 1

                         Standard orientation:
 ---------------------------------------------------------------------
 Center     Atomic      Atomic             Coordinates (Angstroms)
 Number     Number       Type             X           Y           Z
 ---------------------------------------------------------------------
      1          6           0       -3.724241   -0.770224   -0.004128
      2          6           0       -2.587766   -0.304894    0.903589
      3          7           0       -1.432471    0.232408    0.162012
      4          6           0       -1.162223    1.549052    0.176705
      5          7           0       -0.127209    2.236534   -0.212588
      6          6           0        1.161203    1.830726   -0.285365
      7          6           0        1.719597    0.600663   -0.022765
      8          6           0        3.081855    0.252729    0.305103
      9          6           0        3.098662   -1.107184    0.437242
     10          7           0        1.856276   -1.693210    0.160978
     11          6           0        1.055414   -0.689772   -0.080823
     12         16           0       -0.526869   -0.890965   -0.818717
     13          1           0       -4.544241   -1.163023    0.604277
     14          1           0       -3.391456   -1.567097   -0.675005
     15          1           0       -4.108178    0.056275   -0.609389
     16          1           0       -2.218359   -1.132928    1.516213
     17          1           0       -2.933818    0.478711    1.584532
     18          1           0       -1.971100    2.131552    0.627086
     19          1           0        1.845685    2.652328   -0.498531
     20          1           0        3.888570    0.945970    0.495761
     21          1           0        3.931610   -1.743043    0.704368
 ---------------------------------------------------------------------

 SCF Done:  E(RB3LYP) =  -872.670981353     A.U. after    1 cycles

 The electronic state is 1-A.
 Alpha  occ. eigenvalues --  -88.91990 -14.41260 -14.33273 -14.31050 -10.29154
 Alpha  occ. eigenvalues --  -10.25233 -10.24546 -10.22749 -10.20246 -10.19054
 Alpha  occ. eigenvalues --  -10.18608 -10.17230  -7.97841  -5.94549  -5.93935
 Alpha  occ. eigenvalues --   -5.93276  -1.00311  -0.94198  -0.92339  -0.79298
 Alpha  occ. eigenvalues --   -0.78970  -0.76183  -0.69904  -0.68528  -0.65039
 Alpha  occ. eigenvalues --   -0.57886  -0.56673  -0.55566  -0.52297  -0.49439
 Alpha  occ. eigenvalues --   -0.48009  -0.45352  -0.44386  -0.42951  -0.41737
 Alpha  occ. eigenvalues --   -0.40765  -0.39708  -0.38831  -0.37820  -0.36946
 Alpha  occ. eigenvalues --   -0.35346  -0.31483  -0.27107  -0.26439  -0.25965
 Alpha  occ. eigenvalues --   -0.23574  -0.20348
 Alpha virt. eigenvalues --   -0.08590  -0.00917   0.00782   0.05824   0.07535
 Alpha virt. eigenvalues --    0.07791   0.10612   0.11929   0.12874   0.13178
 Alpha virt. eigenvalues --    0.13922   0.14317   0.15701   0.16868   0.17661

 Mulliken charges:
               1
     1  C   -0.383067
     2  C   -0.159036
     3  N   -0.073870
     4  C    0.170601
     5  N   -0.313580
     6  C   -0.070939
     7  C    0.226877
     8  C   -0.253357
     9  C   -0.054635
    10  N   -0.304183
    11  C    0.136912
    12  S   -0.076005
    13  H    0.131245
    14  H    0.154520
    15  H    0.131909
    16  H    0.150205
    17  H    0.126560
    18  H    0.131354
    19  H    0.122177
    20  H    0.101414
    21  H    0.104899
 Sum of Mulliken charges =  -0.00000

 Dipole moment (field-independent basis, Debye):
    X=             -3.4727    Y=              1.5516    Z=              1.4055  Tot=              4.0549
 Quadrupole moment (field-independent basis, Debye-Ang):
   XX=            -63.6127   YY=            -82.6801   ZZ=            -76.8599
   XY=              4.0806   XZ=             -2.6625   YZ=              0.9152

  Exact polarizability: 181.369 -10.484 129.642   3.048  -2.387  71.946
 Approx polarizability: 287.162 -40.918 265.127   7.204 -10.372 121.573

                      1                      2                      3
                      A                      A                      A
 Frequencies --     51.0482                76.3054               106.3258
 Red. masses --      3.8792                 2.6780                 3.9729
 Frc consts  --      0.0060                 0.0092                 0.0265
 IR Inten    --      1.0573                 0.5519                 3.4950

                      4                      5                      6
                      A                      A                      A
 Frequencies --    180.1267               210.0039               216.6981
 Red. masses --      4.6935                 4.3624                 1.5720
 Frc consts  --      0.0897                 0.1134                 0.0435
 IR Inten    --      1.3616                 7.3958                 7.3395

                      7                      8                      9
                      A                      A                      A
 Frequencies --    252.6672               299.1374               323.5524
 Red. masses --      2.3389                 4.3190                 5.0403
 Frc consts  --      0.0880                 0.2277                 0.3109
 IR Inten    --      6.2979                 2.4563                 2.5300

                     10                     11                     12
                      A                      A                      A
 Frequencies --    376.6005               440.5151               444.8713
 Red. masses --      3.1497                 4.4000                 7.0624
 Frc consts  --      0.2632                 0.5031                 0.8235
 IR Inten    --      0.8420                 4.6318                 0.1640

                     13                     14                     15
                      A                      A                      A
 Frequencies --    493.3166               562.7373               592.4108
 Red. masses --      3.3830                 6.6693                 4.3635
 Frc consts  --      0.4851                 1.2443                 0.9023
 IR Inten    --     38.7983                 7.1501                 2.6168

                     16                     17                     18
                      A                      A                      A
 Frequencies --    614.7994               688.0688               718.1096
 Red. masses --      4.1140                 6.3412                 3.7241
 Frc consts  --      0.9162                 1.7688                 1.1315
 IR Inten    --     10.4605                 5.4393                12.2190

                     19                     20                     21
                      A                      A                      A
 Frequencies --    781.4653               786.5661               802.4358
 Red. masses --      1.5530                 1.7333                 2.1467
 Frc consts  --      0.5588                 0.6318                 0.8144
 IR Inten    --     23.6155                 9.3826                27.0960

                     22                     23                     24
                      A                      A                      A
 Frequencies --    871.9059               891.2426               942.5564
 Red. masses --      6.2838                 1.3450                 2.3287
 Frc consts  --      2.8146                 0.6295                 1.2189
 IR Inten    --      7.3617                 1.3522                 6.0604

                     25                     26                     27
                      A                      A                      A
 Frequencies --    959.1807               976.3991              1051.0332
 Red. masses --      1.5596                 1.6878                 3.0015
 Frc consts  --      0.8454                 0.9480                 1.9535
 IR Inten    --      2.2987                88.2626                47.0367

                     28                     29                     30
                      A                      A                      A
 Frequencies --   1065.2899              1078.2582              1108.1047
 Red. masses --      2.2987                 3.5435                 1.9852
 Frc consts  --      1.5370                 2.4274                 1.4362
 IR Inten    --      2.0217                22.1006                 7.4831

                     31                     32                     33
                      A                      A                      A
 Frequencies --   1120.4763              1132.5943              1177.3840
 Red. masses --      3.1688                 1.9020                 2.2935
 Frc consts  --      2.3439                 1.4375                 1.8732
 IR Inten    --     18.7546                51.1269                 8.2020

                     34                     35                     36
                      A                      A                      A
 Frequencies --   1242.0742              1282.7777              1342.8290
 Red. masses --      2.5920                 1.4283                 2.3706
 Frc consts  --      2.3560                 1.3848                 2.5185
 IR Inten    --      1.9412                22.7587               148.0505

                     37                     38                     39
                      A                      A                      A
 Frequencies --   1381.0953              1399.1152              1407.3166
 Red. masses --      1.2877                 1.9628                 1.8480
 Frc consts  --      1.4471                 2.2638                 2.1564
 IR Inten    --     66.7123                36.4703                35.8645

                     40                     41                     42
                      A                      A                      A
 Frequencies --   1413.1886              1442.0026              1462.4252
 Red. masses --      1.2667                 2.9202                 1.2824
 Frc consts  --      1.4905                 3.5776                 1.6160
 IR Inten    --     22.7145               181.3219                14.5493

                     43                     44                     45
                      A                      A                      A
 Frequencies --   1487.7852              1494.4465              1504.5375
 Red. masses --      1.1017                 1.1600                 1.1047
 Frc consts  --      1.4367                 1.5264                 1.4734
 IR Inten    --      3.0506                 6.7413                 3.1766

                     46                     47                     48
                      A                      A                      A
 Frequencies --   1531.4111              1583.2227              1629.5452
 Red. masses --      5.0738                 8.4324                 6.5031
 Frc consts  --      7.0108                12.4533                10.1742
 IR Inten    --      7.5531               462.6506               208.2792

                     49                     50                     51
                      A                      A                      A
 Frequencies --   3044.0147              3051.7221              3086.0620
 Red. masses --      1.0356                 1.0589                 1.0879
 Frc consts  --      5.6535                 5.8103                 6.1043
 IR Inten    --     12.2192                13.7166                17.0251

                     52                     53                     54
                      A                      A                      A
 Frequencies --   3096.7340              3119.9196              3123.2443
 Red. masses --      1.1011                 1.1015                 1.0877
 Frc consts  --      6.2215                 6.3170                 6.2516
 IR Inten    --     10.1851                21.9709                22.8716

                     55                     56                     57
                      A                      A                      A
 Frequencies --   3126.9809              3221.3073              3243.6616
 Red. masses --      1.1038                 1.0874                 1.1038
 Frc consts  --      6.3591                 6.6481                 6.8424
 IR Inten    --     20.0129                 3.8915                19.0031

 - Thermochemistry -
 -------------------
 Temperature   298.150 Kelvin.  Pressure   1.00000 Atm.
 Atom     1 has atomic number  6 and mass  12.00000

 Molecular mass:   179.05172 amu.
 Principal axes and moments of inertia in atomic units:
                           1         2         3
     Eigenvalues --  1088.144892817.562193585.88695
           X            0.99982   0.01837  -0.00520
           Y           -0.01840   0.99981  -0.00642
           Z            0.00508   0.00652   0.99997
 This molecule is an asymmetric top.
 Rotational symmetry number  1.
 Warning -- assumption of classical behavior for rotation
           may cause significant error
 Rotational temperatures (Kelvin)      0.07960     0.03074     0.02415
 Rotational constants (GHZ):           1.65855     0.64053     0.50329
 Zero-point vibrational energy     425329.9 (Joules/Mol)
                                  101.65629 (Kcal/Mol)
 Warning -- explicit consideration of  16 degrees of freedom as
           vibrations may cause significant error
 Vibrational temperatures:     73.45   109.79   152.98   259.16   302.15
          (Kelvin)            311.78   363.53   430.39   465.52   541.84
                              633.80   640.07   709.77   809.65   852.35
                              884.56   989.98  1033.20  1124.35  1131.69
                             1154.53  1254.48  1282.30  1356.13  1380.05
                             1404.82  1512.20  1532.71  1551.37  1594.32
                             1612.12  1629.55  1693.99  1787.07  1845.63
                             1932.03  1987.09  2013.01  2024.81  2033.26
                             2074.72  2104.10  2140.59  2150.18  2164.69
                             2203.36  2277.90  2344.55  4379.66  4390.75
                             4440.15  4455.51  4488.87  4493.65  4499.03
                             4634.74  4666.91

 Zero-point correction=                           0.162000 (Hartree/Particle)
 Thermal correction to Energy=                    0.172725
 Thermal correction to Enthalpy=                  0.173670
 Thermal correction to Gibbs Free Energy=         0.124994
 Sum of electronic and zero-point Energies=           -872.508982
 Sum of electronic and thermal Energies=              -872.498256
 Sum of electronic and thermal Enthalpies=            -872.497312
 Sum of electronic and thermal Free Energies=         -872.545987

                     E (Thermal)             CV                S
                      KCal/Mol        Cal/Mol-Kelvin    Cal/Mol-Kelvin
 Total                  108.387             40.498            102.445
 Electronic               0.000              0.000              0.000
 Translational            0.889              2.981             41.454
 Rotational               0.889              2.981             30.776
 Vibrational            106.609             34.536             30.215
 Vibration     1          0.595              1.977              4.776
 Vibration     2          0.599              1.965              3.984
 Vibration     3          0.605              1.944              3.335
 Vibration     4          0.629              1.867              2.327
 Vibration     5          0.642              1.826              2.044
 Vibration     6          0.646              1.816              1.987
 Vibration     7          0.664              1.758              1.712
 Vibration     8          0.692              1.675              1.422
 Vibration     9          0.708              1.628              1.292
 Vibration    10          0.747              1.520              1.053
 Vibration    11          0.800              1.382              0.825
 Vibration    12          0.804              1.372              0.811
 Vibration    13          0.849              1.265              0.675
 Vibration    14          0.918              1.112              0.518
 Vibration    15          0.950              1.048              0.463
 Vibration    16          0.974              1.001              0.425

 Optimization completed.
    -- Stationary point found.
 Normal termination of Gaussian 16 at Fri May 19 23:11:45 2023.
