 Gaussian 16, Revision A.03,
 Gaussian 16:  ES64L-G16RevA.03 25-Dec-2016

 -----------------------------
 # opt freq b3lyp/6-31g(2df,p)
 -----------------------------

 -------------------
 Title Card Required
 -------------------
 Symbolic Z-matrix:
 Charge =  0 Multiplicity = 1

 SCF Done:  E(RB3LYP) =  -936.353829757     A.U. after   19 cycles
 SCF Done:  E(RB3LYP) =  -936.389577251     A.U. after   15 cycles
 SCF Done:  E(RB3LYP) =  -936.411485503     A.U. after   15 cycles
 SCF Done:  E(RB3LYP) =  -936.419802983     A.U. after   12 cycles
 SCF Done:  E(RB3LYP) =  -936.421440795     A.U. after   13 cycles
 SCF Done:  E(RB3LYP) =  -936.422205729     A.U. after   13 cycles
 SCF Done:  E(RB3LYP) =  -936.422664999     A.U. after   12 cycles
 SCF Done:  E(RB3LYP) =  -936.423144533     A.U. after   13 cycles
 SCF Done:  E(RB3LYP) =  -936.423404790     A.U. after   13 cycles
 SCF Done:  E(RB3LYP) =  -936.423566674     A.U. after   11 cycles
 SCF Done:  E(RB3LYP) =  -936.429215860     A.U. after   15 cycles
 SCF Done:  E(RB3LYP) =  -936.429517902     A.U. after   13 cycles
 SCF Done:  E(RB3LYP) =  -936.429559592     A.U. after   11 cycles
 SCF Done:  E(RB3LYP) =  -936.429585498     A.U. after   11 cycles
 SCF Done:  E(RB3LYP) =  -936.429596433     A.U. after   11 cycles
 SCF Done:  E(RB3LYP) =  -936.429598140     A.U. after   10 cycles
 SCF Done:  E(RB3LYP) =  -936.429598586     A.U. after    8 cycles
 SCF Done:  E(RB3LYP) =  -936.429598679     A.U. after    7 cycles
 SCF Done:  E(RB3LYP) =  -936.429598696     A.U. after    6 cycles
 Optimization completed.
    -- Stationary point found.

 The electronic state is 1-A.
 Alpha  occ. eigenvalues --  -88.83419 -14.40126 -14.36819 -10.27624 -10.24396
 Alpha  occ. eigenvalues --  -10.21774 -10.21139 -10.20620 -10.20380 -10.19507
 Alpha  occ. eigenvalues --  -10.19468 -10.18490 -10.17813 -10.16980  -7.89997
 Alpha  occ. eigenvalues --   -5.86374  -5.86121  -5.85584  -0.98695  -0.94127
 Alpha  occ. eigenvalues --   -0.83506  -0.80846  -0.77936  -0.76036  -0.73309
 Alpha  occ. eigenvalues --   -0.69245  -0.65002  -0.63963  -0.60707  -0.59181
 Alpha  occ. eigenvalues --   -0.57206  -0.55761  -0.53049  -0.49573  -0.49014
 Alpha  occ. eigenvalues --   -0.47456  -0.44832  -0.44135  -0.43867  -0.43026
 Alpha  occ. eigenvalues --   -0.42058  -0.41424  -0.39909  -0.38815  -0.37283
 Alpha  occ. eigenvalues --   -0.37166  -0.36759  -0.35803  -0.35068  -0.33784
 Alpha  occ. eigenvalues --   -0.30327  -0.29354  -0.22919  -0.22112  -0.21689
 Alpha  occ. eigenvalues --   -0.18580
 Alpha virt. eigenvalues --   -0.05850  -0.04689   0.02395   0.04763   0.06411
 Alpha virt. eigenvalues --    0.07858   0.08513   0.09815   0.10074   0.10433
 Alpha virt. eigenvalues --    0.11266   0.12232   0.13906   0.14142   0.14555

 Mulliken charges:
               1
     1  C   -0.377080
     2  C   -0.115577
     3  N   -0.153558
     4  C   -0.162797
     5  C   -0.148243
     6  C   -0.014612
     7  C   -0.063273
     8  C   -0.047367
     9  C   -0.296268
    10  C   -0.137315
    11  C    0.065984
    12  N   -0.228189
    13  C    0.079424
    14  S   -0.382493
    15  H    0.122297
    16  H    0.134961
    17  H    0.113379
    18  H    0.135151
    19  H    0.103182
    20  H    0.201003
    21  H    0.037919
    22  H    0.104122
    23  H    0.083096
    24  H    0.094627
    25  H    0.106004
    26  H    0.123142
    27  H    0.092794
    28  H    0.120803
    29  H    0.273770
    30  H    0.135113
 Sum of Mulliken charges =  -0.00000

 Dipole moment (field-independent basis, Debye):
    X=             -4.0243    Y=              2.0410    Z=              2.3633  Tot=              5.0937
 Quadrupole moment (field-independent basis, Debye-Ang):
   XX=           -116.8034   YY=            -94.1134   ZZ=            -87.6886
   XY=             21.1520   XZ=             -7.9648   YZ=             -3.4086

 Normal termination of Gaussian 16 at Thu May 18 06:25:28 2023.

 ----------------------------------------------------------------------
 #N Geom=AllCheck Guess=TCheck SCRF=Check GenChk RB3LYP/6-31G(2df,p) Fr
 eq
 ----------------------------------------------------------------------

 Structure from the checkpoint file:  "CCN[C]CdCCdCCCdCNCdS.chk"
 -------------------
 Title Card Required
 -------------------
 Charge =  0 Multiplicity = 1

                         Standard orientation:
 ---------------------------------------------------------------------
 Center     Atomic      Atomic             Coordinates (Angstroms)
 Number     Number       Type             X           Y           Z
 ---------------------------------------------------------------------
      1          6           0       -7.743721   -0.460264    0.260572
      2          6           0       -6.603393   -1.317889   -0.289941
      3          7           0       -5.299522   -0.876350    0.195750
      4          6           0       -4.387883   -0.312237   -0.566161
      5          6           0       -3.201153    0.050501    0.201821
      6          6           0       -2.144659    0.638921   -0.396809
      7          6           0       -0.924866    1.038260    0.267730
      8          6           0        0.107240    1.628132   -0.352514
      9          6           0        1.388076    2.056375    0.312595
     10          6           0        2.598086    1.397940   -0.299677
     11          6           0        3.428967    0.600142    0.372661
     12          7           0        4.549089   -0.021365   -0.179466
     13          6           0        5.409642   -0.822793    0.477527
     14         16           0        6.729167   -1.549902   -0.176762
     15          1           0       -8.707559   -0.826460   -0.105665
     16          1           0       -7.624374    0.580713   -0.053256
     17          1           0       -7.770670   -0.485954    1.355619
     18          1           0       -6.554900   -1.257644   -1.378569
     19          1           0       -6.750173   -2.368801   -0.008100
     20          1           0       -5.166422   -1.017945    1.206049
     21          1           0       -3.141707   -0.147959    1.284894
     22          1           0       -2.219753    0.827276   -1.465873
     23          1           0       -0.861299    0.842821    1.337959
     24          1           0        0.037581    1.817191   -1.423482
     25          1           0        1.343783    1.839111    1.385177
     26          1           0        1.490686    3.148753    0.215528
     27          1           0        2.777215    1.588321   -1.356680
     28          1           0        3.284471    0.379504    1.425835
     29          1           0        4.750585    0.132598   -1.160629
     30          1           0        5.140881   -0.951619    1.528571
 ---------------------------------------------------------------------

 SCF Done:  E(RB3LYP) =  -936.429598696     A.U. after    1 cycles
