 Gaussian 16, Revision A.03,
 Gaussian 16:  ES64L-G16RevA.03 25-Dec-2016

 -----------------------------
 # opt freq b3lyp/6-31g(2df,p)
 -----------------------------

 -------------------
 Title Card Required
 -------------------
 Symbolic Z-matrix:
 Charge =  0 Multiplicity = 1

 SCF Done:  E(RB3LYP) =  -633.539732199     A.U. after   21 cycles
 SCF Done:  E(RB3LYP) =  -633.611168106     A.U. after   17 cycles
 SCF Done:  E(RB3LYP) =  -633.698684379     A.U. after   17 cycles
 SCF Done:  E(RB3LYP) =  -633.702653631     A.U. after   14 cycles
 SCF Done:  E(RB3LYP) =  -633.733730162     A.U. after   16 cycles
 SCF Done:  E(RB3LYP) =  -633.758644037     A.U. after   16 cycles
 SCF Done:  E(RB3LYP) =  -633.795365969     A.U. after   16 cycles
 SCF Done:  E(RB3LYP) =  -633.834400089     A.U. after   15 cycles
 SCF Done:  E(RB3LYP) =  -633.864042851     A.U. after   14 cycles
 SCF Done:  E(RB3LYP) =  -633.918758850     A.U. after   14 cycles
 SCF Done:  E(RB3LYP) =  -633.976931659     A.U. after   10 cycles
 SCF Done:  E(RB3LYP) =  -633.976934471     A.U. after    8 cycles
 SCF Done:  E(RB3LYP) =  -633.976936413     A.U. after    8 cycles
 SCF Done:  E(RB3LYP) =  -633.976937098     A.U. after    8 cycles
 SCF Done:  E(RB3LYP) =  -633.976937809     A.U. after    8 cycles
 SCF Done:  E(RB3LYP) =  -633.976938472     A.U. after    8 cycles
 SCF Done:  E(RB3LYP) =  -633.976938821     A.U. after    8 cycles
 SCF Done:  E(RB3LYP) =  -633.976939171     A.U. after    8 cycles
 SCF Done:  E(RB3LYP) =  -633.976939324     A.U. after    7 cycles
 Optimization completed.
    -- Stationary point found.
 Normal termination of Gaussian 16 at Thu May 18 05:10:17 2023.

 ----------------------------------------------------------------------
 #N Geom=AllCheck Guess=TCheck SCRF=Check GenChk RB3LYP/6-31G(2df,p) Fr
 eq
 ----------------------------------------------------------------------

 Structure from the checkpoint file:  "CCNdCC1dCCdC2C3dCCdCCdCC3dC12.chk"
 -------------------
 Title Card Required
 -------------------
 Charge =  0 Multiplicity = 1

                         Standard orientation:
 ---------------------------------------------------------------------
 Center     Atomic      Atomic             Coordinates (Angstroms)
 Number     Number       Type             X           Y           Z
 ---------------------------------------------------------------------
      1          6           0       -5.645555    0.891153    0.571997
      2          6           0       -4.560374    1.108014   -0.486772
      3          7           0       -3.539640    0.082325   -0.391683
      4          6           0       -2.338331    0.448309   -0.179477
      5          6           0       -1.246415   -0.499941   -0.061903
      6          6           0       -1.376582   -1.970505   -0.170486
      7          6           0       -0.169515   -2.618207   -0.044107
      8          6           0        0.786101   -1.579741    0.179315
      9          6           0        2.002432   -0.948327    0.318546
     10          6           0        3.443284   -0.813792    0.467836
     11          6           0        4.122305   -0.230095   -0.551978
     12          6           0        4.462343    1.176039   -0.315441
     13          6           0        3.417911    1.955903    0.089853
     14          6           0        1.981476    1.636569    0.231942
     15          6           0        1.382692    0.421470    0.277962
     16          6           0        0.081924   -0.282381    0.158950
     17          1           0       -6.448989    1.625005    0.455160
     18          1           0       -5.230421    0.993047    1.579485
     19          1           0       -6.072305   -0.111627    0.482213
     20          1           0       -4.137922    2.123942   -0.395835
     21          1           0       -5.016759    1.033562   -1.483016
     22          1           0       -2.061273    1.510014   -0.076186
     23          1           0       -2.334696   -2.446083   -0.337886
     24          1           0       -0.003418   -3.683627   -0.098227
     25          1           0        3.650561   -0.378924    1.449860
     26          1           0        4.004374   -0.574757   -1.579357
     27          1           0        5.410936    1.634660   -0.582256
     28          1           0        3.620758    3.022015    0.187227
     29          1           0        1.334457    2.509691    0.223179
 ---------------------------------------------------------------------

 SCF Done:  E(RB3LYP) =  -633.976939324     A.U. after    1 cycles

 The electronic state is 1-A.
 Alpha  occ. eigenvalues --  -14.31533 -10.24450 -10.22164 -10.21757 -10.20806
 Alpha  occ. eigenvalues --  -10.20513 -10.20431 -10.20317 -10.20261 -10.19904
 Alpha  occ. eigenvalues --  -10.19827 -10.19652 -10.19342 -10.19292 -10.18949
 Alpha  occ. eigenvalues --  -10.17238  -0.92204  -0.91118  -0.84843  -0.80806
 Alpha  occ. eigenvalues --   -0.76935  -0.75823  -0.71902  -0.71402  -0.65179
 Alpha  occ. eigenvalues --   -0.62710  -0.61931  -0.58042  -0.57054  -0.54280
 Alpha  occ. eigenvalues --   -0.51035  -0.50042  -0.49496  -0.47899  -0.46015
 Alpha  occ. eigenvalues --   -0.45068  -0.43906  -0.42322  -0.41340  -0.40424
 Alpha  occ. eigenvalues --   -0.39415  -0.39107  -0.38118  -0.37254  -0.36853
 Alpha  occ. eigenvalues --   -0.35465  -0.34040  -0.32974  -0.30999  -0.30616
 Alpha  occ. eigenvalues --   -0.27424  -0.24810  -0.24052  -0.22659  -0.19907
 Alpha virt. eigenvalues --   -0.07898  -0.05892  -0.02326   0.00509   0.06361
 Alpha virt. eigenvalues --    0.09508   0.10576   0.11045   0.11894   0.13065
 Alpha virt. eigenvalues --    0.13320   0.13733   0.14835   0.15525   0.15623

 Mulliken charges:
               1
     1  C   -0.361843
     2  C   -0.121436
     3  N   -0.191083
     4  C   -0.067679
     5  C   -0.049324
     6  C   -0.103494
     7  C   -0.336878
     8  C    0.113124
     9  C    0.148337
    10  C   -0.264741
    11  C   -0.104690
    12  C   -0.156864
    13  C   -0.031204
    14  C   -0.279421
    15  C    0.169759
    16  C    0.262524
    17  H    0.111219
    18  H    0.118470
    19  H    0.127555
    20  H    0.080986
    21  H    0.107826
    22  H    0.066026
    23  H    0.131111
    24  H    0.113539
    25  H    0.128137
    26  H    0.110732
    27  H    0.094349
    28  H    0.094683
    29  H    0.090278
 Sum of Mulliken charges =  -0.00000

 Dipole moment (field-independent basis, Debye):
    X=              0.4986    Y=              0.9533    Z=             -0.1690  Tot=              1.0890
 Quadrupole moment (field-independent basis, Debye-Ang):
   XX=            -91.0884   YY=            -86.2639   ZZ=            -93.8685
   XY=             -0.6914   XZ=             -1.3030   YZ=              0.3064

  Exact polarizability: 319.914  27.661 174.070   1.783   0.860  89.550
 Approx polarizability: 519.320  72.641 309.786   8.479  -1.447 157.527

                      1                      2                      3
                      A                      A                      A
 Frequencies --     33.2347                50.4245                71.5171
 Red. masses --      3.6971                 3.6150                 4.2529
 Frc consts  --      0.0024                 0.0054                 0.0128
 IR Inten    --      0.0248                 0.2005                 0.5153

                      4                      5                      6
                      A                      A                      A
 Frequencies --     86.5781               120.7397               164.1036
 Red. masses --      2.9077                 3.2925                 3.8664
 Frc consts  --      0.0128                 0.0283                 0.0613
 IR Inten    --      1.7837                 4.2453                 2.1603

                      7                      8                      9
                      A                      A                      A
 Frequencies --    199.9112               225.2155               250.0020
 Red. masses --      2.0771                 2.1423                 1.6569
 Frc consts  --      0.0489                 0.0640                 0.0610
 IR Inten    --      4.7410                 0.6863                 4.9404

                     10                     11                     12
                      A                      A                      A
 Frequencies --    266.4281               323.1068               348.3919
 Red. masses --      3.9332                 4.1183                 3.3986
 Frc consts  --      0.1645                 0.2533                 0.2430
 IR Inten    --      0.5761                 5.9116                 2.4458

                     13                     14                     15
                      A                      A                      A
 Frequencies --    369.4775               379.8394               416.6305
 Red. masses --      3.8986                 3.5759                 3.3026
 Frc consts  --      0.3136                 0.3040                 0.3378
 IR Inten    --      2.9790                 8.3791                 3.4037

                     16                     17                     18
                      A                      A                      A
 Frequencies --    473.0247               483.5631               563.0837
 Red. masses --      3.8039                 4.6950                 3.3501
 Frc consts  --      0.5015                 0.6468                 0.6258
 IR Inten    --      2.6502                 3.4252                 1.4925

                     19                     20                     21
                      A                      A                      A
 Frequencies --    599.4798               609.8158               632.1222
 Red. masses --      3.6296                 4.2446                 5.3055
 Frc consts  --      0.7685                 0.9300                 1.2491
 IR Inten    --      7.3034                15.6350                 5.9934

                     22                     23                     24
                      A                      A                      A
 Frequencies --    653.9219               683.0943               748.1406
 Red. masses --      4.2202                 2.7199                 2.5696
 Frc consts  --      1.0632                 0.7478                 0.8474
 IR Inten    --      5.7154                25.3968                35.5468

                     25                     26                     27
                      A                      A                      A
 Frequencies --    763.1457               781.4664               789.2856
 Red. masses --      2.5045                 1.8973                 2.1630
 Frc consts  --      0.8594                 0.6826                 0.7939
 IR Inten    --      4.7765                71.3644                 7.9852

                     28                     29                     30
                      A                      A                      A
 Frequencies --    806.4469               815.7151               860.2338
 Red. masses --      2.4858                 1.2191                 2.3790
 Frc consts  --      0.9525                 0.4779                 1.0372
 IR Inten    --     24.7417                 1.9991                17.4167

                     31                     32                     33
                      A                      A                      A
 Frequencies --    874.2400               904.9768               910.0694
 Red. masses --      2.6411                 2.9942                 3.2096
 Frc consts  --      1.1893                 1.4448                 1.5662
 IR Inten    --     12.6141                 3.1818                 1.6605

                     34                     35                     36
                      A                      A                      A
 Frequencies --    946.8630               948.9617               981.6933
 Red. masses --      1.8472                 2.2476                 1.5152
 Frc consts  --      0.9757                 1.1925                 0.8603
 IR Inten    --      7.9728                 1.2058                30.0825

                     37                     38                     39
                      A                      A                      A
 Frequencies --    993.9746              1001.6043              1007.8291
 Red. masses --      1.8624                 1.5626                 1.8011
 Frc consts  --      1.0841                 0.9236                 1.0779
 IR Inten    --      6.3929                 2.1097                 6.8534

                     40                     41                     42
                      A                      A                      A
 Frequencies --   1037.9361              1068.1512              1075.4840
 Red. masses --      3.0145                 1.9414                 1.7801
 Frc consts  --      1.9134                 1.3050                 1.2131
 IR Inten    --      2.8659                 1.6995                 8.6730

                     43                     44                     45
                      A                      A                      A
 Frequencies --   1090.1665              1124.2449              1147.5380
 Red. masses --      2.9684                 2.1322                 2.1568
 Frc consts  --      2.0785                 1.5878                 1.6734
 IR Inten    --      2.4907                 8.8099                 8.0739

                     46                     47                     48
                      A                      A                      A
 Frequencies --   1173.0808              1219.6843              1224.9523
 Red. masses --      1.9531                 2.6204                 1.4079
 Frc consts  --      1.5836                 2.2968                 1.2447
 IR Inten    --     25.7797                52.7685                25.7810

                     49                     50                     51
                      A                      A                      A
 Frequencies --   1259.9157              1286.0819              1290.8080
 Red. masses --      1.3814                 2.5146                 1.2102
 Frc consts  --      1.2920                 2.4505                 1.1881
 IR Inten    --      7.3541                33.6167                15.2641

                     52                     53                     54
                      A                      A                      A
 Frequencies --   1338.3898              1353.4549              1363.0271
 Red. masses --      1.4672                 1.3245                 1.4075
 Frc consts  --      1.5485                 1.4295                 1.5407
 IR Inten    --      9.9841                 4.6498                21.9995

                     55                     56                     57
                      A                      A                      A
 Frequencies --   1371.1002              1397.9551              1404.7213
 Red. masses --      1.9880                 1.3774                 1.3388
 Frc consts  --      2.2019                 1.5860                 1.5564
 IR Inten    --     48.8113                 9.8826                 7.7972

                     58                     59                     60
                      A                      A                      A
 Frequencies --   1415.2943              1458.2213              1485.4828
 Red. masses --      1.5228                 4.9659                 1.0597
 Frc consts  --      1.7972                 6.2215                 1.3778
 IR Inten    --      3.2892                 5.7865                23.5885

                     61                     62                     63
                      A                      A                      A
 Frequencies --   1488.8950              1509.3680              1527.2965
 Red. masses --      1.0449                 1.0786                 7.3153
 Frc consts  --      1.3647                 1.4477                10.0538
 IR Inten    --      2.8088                10.4062                79.9345

                     64                     65                     66
                      A                      A                      A
 Frequencies --   1566.2605              1609.8196              1633.2706
 Red. masses --      5.3047                 6.1029                 7.8656
 Frc consts  --      7.6672                 9.3184                12.3622
 IR Inten    --     19.4201                31.9408                37.1982

                     67                     68                     69
                      A                      A                      A
 Frequencies --   1709.9996              1728.5250              2948.8273
 Red. masses --      8.7554                 9.7908                 1.0682
 Frc consts  --     15.0841                17.2354                 5.4725
 IR Inten    --    211.6615                22.0827                58.5832

                     70                     71                     72
                      A                      A                      A
 Frequencies --   2980.1797              3027.6340              3039.4728
 Red. masses --      1.0837                 1.0909                 1.0349
 Frc consts  --      5.6711                 5.8918                 5.6330
 IR Inten    --     45.9805                28.2588                36.3666

                     73                     74                     75
                      A                      A                      A
 Frequencies --   3071.0935              3111.0531              3118.5429
 Red. masses --      1.0827                 1.1021                 1.0861
 Frc consts  --      6.0163                 6.2848                 6.2233
 IR Inten    --      6.0769                38.3548                14.7033

                     76                     77                     78
                      A                      A                      A
 Frequencies --   3119.9843              3126.8990              3155.0160
 Red. masses --      1.1021                 1.0836                 1.0894
 Frc consts  --      6.3209                 6.2421                 6.3894
 IR Inten    --     23.2968                15.8428                36.5764

                     79                     80                     81
                      A                      A                      A
 Frequencies --   3162.1449              3223.0389              3248.2274
 Red. masses --      1.0909                 1.0890                 1.1001
 Frc consts  --      6.4268                 6.6652                 6.8387
 IR Inten    --     25.3655                 0.1703                 6.0287

 - Thermochemistry -
 -------------------
 Temperature   298.150 Kelvin.  Pressure   1.00000 Atm.
 Atom     1 has atomic number  6 and mass  12.00000

 Molecular mass:   207.10480 amu.
 Principal axes and moments of inertia in atomic units:
                           1         2         3
     Eigenvalues --  1380.863827247.311268404.88455
           X            0.99998  -0.00443  -0.00370
           Y            0.00445   0.99998   0.00461
           Z            0.00368  -0.00463   0.99998
 This molecule is an asymmetric top.
 Rotational symmetry number  1.
 Warning -- assumption of classical behavior for rotation
           may cause significant error
 Rotational temperatures (Kelvin)      0.06272     0.01195     0.01031
 Rotational constants (GHZ):           1.30697     0.24902     0.21473
 Zero-point vibrational energy     609076.2 (Joules/Mol)
                                  145.57271 (Kcal/Mol)
 Warning -- explicit consideration of  20 degrees of freedom as
           vibrations may cause significant error
 Vibrational temperatures:     47.82    72.55   102.90   124.57   173.72
          (Kelvin)            236.11   287.63   324.03   359.70   383.33
                              464.88   501.26   531.60   546.50   599.44
                              680.58   695.74   810.15   862.52   877.39
                              909.48   940.85   982.82  1076.41  1098.00
                             1124.36  1135.61  1160.30  1173.63  1237.68
                             1257.84  1302.06  1309.39  1362.32  1365.34
                             1412.44  1430.11  1441.09  1450.04  1493.36
                             1536.83  1547.38  1568.51  1617.54  1651.05
                             1687.80  1754.85  1762.43  1812.74  1850.38
                             1857.18  1925.64  1947.32  1961.09  1972.71
                             2011.35  2021.08  2036.29  2098.06  2137.28
                             2142.19  2171.64  2197.44  2253.50  2316.17
                             2349.91  2460.31  2486.96  4242.70  4287.81
                             4356.09  4373.12  4418.62  4476.11  4486.89
                             4488.96  4498.91  4539.36  4549.62  4637.23
                             4673.47

 Zero-point correction=                           0.231985 (Hartree/Particle)
 Thermal correction to Energy=                    0.245819
 Thermal correction to Enthalpy=                  0.246763
 Thermal correction to Gibbs Free Energy=         0.190351
 Sum of electronic and zero-point Energies=           -633.744954
 Sum of electronic and thermal Energies=              -633.731120
 Sum of electronic and thermal Enthalpies=            -633.730176
 Sum of electronic and thermal Free Energies=         -633.786588

                     E (Thermal)             CV                S
                      KCal/Mol        Cal/Mol-Kelvin    Cal/Mol-Kelvin
 Total                  154.254             53.769            118.730
 Electronic               0.000              0.000              0.000
 Translational            0.889              2.981             41.888
 Rotational               0.889              2.981             32.797
 Vibrational            152.476             47.807             44.044
 Vibration     1          0.594              1.983              5.626
 Vibration     2          0.595              1.977              4.801
 Vibration     3          0.598              1.968              4.111
 Vibration     4          0.601              1.959              3.736
 Vibration     5          0.609              1.932              3.088
 Vibration     6          0.623              1.887              2.502
 Vibration     7          0.638              1.840              2.134
 Vibration     8          0.650              1.803              1.917
 Vibration     9          0.663              1.763              1.731
 Vibration    10          0.672              1.735              1.619
 Vibration    11          0.708              1.629              1.294
 Vibration    12          0.726              1.579              1.173
 Vibration    13          0.742              1.535              1.082
 Vibration    14          0.750              1.513              1.040
 Vibration    15          0.780              1.434              0.903
 Vibration    16          0.830              1.310              0.729
 Vibration    17          0.840              1.287              0.701
 Vibration    18          0.919              1.111              0.518
 Vibration    19          0.958              1.033              0.451
 Vibration    20          0.969              1.011              0.433

 Optimization completed.
    -- Stationary point found.
 Normal termination of Gaussian 16 at Thu May 18 07:14:10 2023.
