 Gaussian 16, Revision A.03,
 Gaussian 16:  ES64L-G16RevA.03 25-Dec-2016

 -----------------------------
 # opt freq b3lyp/6-31g(2df,p)
 -----------------------------

 -------------------
 Title Card Required
 -------------------
 Symbolic Z-matrix:
 Charge =  0 Multiplicity = 1

 SCF Done:  E(RB3LYP) =  -558.397556103     A.U. after   30 cycles
 SCF Done:  E(RB3LYP) =  -558.510107540     A.U. after   18 cycles
 SCF Done:  E(RB3LYP) =  -558.606179138     A.U. after   17 cycles
 SCF Done:  E(RB3LYP) =  -558.208563237     A.U. after   20 cycles
 SCF Done:  E(RB3LYP) =  -558.625322825     A.U. after   19 cycles
 SCF Done:  E(RB3LYP) =  -558.694707761     A.U. after   16 cycles
 SCF Done:  E(RB3LYP) =  -558.556004685     A.U. after   17 cycles
 SCF Done:  E(RB3LYP) =  -558.737096486     A.U. after   14 cycles
 SCF Done:  E(RB3LYP) =  -558.784046985     A.U. after   15 cycles
 SCF Done:  E(RB3LYP) =  -558.861333282     A.U. after   15 cycles
 SCF Done:  E(RB3LYP) =  -559.021187252     A.U. after    8 cycles
 SCF Done:  E(RB3LYP) =  -559.021191757     A.U. after    8 cycles
 SCF Done:  E(RB3LYP) =  -559.021196202     A.U. after    8 cycles
 SCF Done:  E(RB3LYP) =  -559.021200680     A.U. after    8 cycles
 SCF Done:  E(RB3LYP) =  -559.021205027     A.U. after    8 cycles
 SCF Done:  E(RB3LYP) =  -559.021207253     A.U. after    7 cycles
 SCF Done:  E(RB3LYP) =  -559.021209086     A.U. after    7 cycles
 SCF Done:  E(RB3LYP) =  -559.021210826     A.U. after    8 cycles
 SCF Done:  E(RB3LYP) =  -559.021211196     A.U. after    7 cycles
 Optimization completed.
    -- Stationary point found.
 Normal termination of Gaussian 16 at Sat May 20 06:49:03 2023.

 ----------------------------------------------------------------------
 #N Geom=AllCheck Guess=TCheck SCRF=Check GenChk RB3LYP/6-31G(2df,p) Fr
 eq
 ----------------------------------------------------------------------

 Structure from the checkpoint file:  "CCNdCdC1CdCCdCdCCdCqCrC1.chk"
 -------------------
 Title Card Required
 -------------------
 Charge =  0 Multiplicity = 1

                         Standard orientation:
 ---------------------------------------------------------------------
 Center     Atomic      Atomic             Coordinates (Angstroms)
 Number     Number       Type             X           Y           Z
 ---------------------------------------------------------------------
      1          6           0        4.919808    0.615687    0.605669
      2          6           0        3.935805   -0.436509    0.097840
      3          7           0        2.926835    0.188221   -0.766976
      4          6           0        1.729957    0.139493   -0.523066
      5          6           0        0.431984    0.134231   -0.350086
      6          6           0       -0.398551    1.096528    0.399606
      7          6           0       -0.995709    2.225684   -0.016694
      8          6           0       -2.408242    2.345271    0.459869
      9          6           0       -3.055253    1.242204    0.141412
     10          6           0       -3.337253    0.051064   -0.329636
     11          6           0       -2.734709   -1.193148    0.239362
     12          6           0       -1.478484   -1.608186   -0.007787
     13          6           0       -0.933499   -2.847845    0.655731
     14          6           0       -0.508065   -0.927350   -0.975924
     15          1           0        5.710651    0.141933    1.195063
     16          1           0        4.412211    1.349820    1.238295
     17          1           0        5.378836    1.147715   -0.232014
     18          1           0        3.469332   -0.970731    0.936608
     19          1           0        4.468543   -1.172864   -0.514548
     20          1           0       -0.891677    0.613528    1.240326
     21          1           0       -0.613532    2.847939   -0.822205
     22          1           0       -2.814217    3.170210    1.036028
     23          1           0       -3.944750   -0.036316   -1.232094
     24          1           0       -3.356458   -1.805954    0.891133
     25          1           0       -0.679970   -3.616143   -0.085978
     26          1           0       -1.642073   -3.278921    1.367357
     27          1           0       -0.004855   -2.616515    1.193075
     28          1           0       -1.084492   -0.416670   -1.755155
     29          1           0        0.097869   -1.697318   -1.464842
 ---------------------------------------------------------------------

 SCF Done:  E(RB3LYP) =  -559.021211196     A.U. after    1 cycles

 The electronic state is 1-A.
 Alpha  occ. eigenvalues --  -14.33817 -10.22606 -10.22091 -10.19695 -10.19668
 Alpha  occ. eigenvalues --  -10.19585 -10.19322 -10.19296 -10.18996 -10.18872
 Alpha  occ. eigenvalues --  -10.18596 -10.18471 -10.18112 -10.17964  -0.93163
 Alpha  occ. eigenvalues --   -0.84270  -0.80589  -0.79398  -0.75931  -0.73348
 Alpha  occ. eigenvalues --   -0.69598  -0.67440  -0.64826  -0.62381  -0.58134
 Alpha  occ. eigenvalues --   -0.53250  -0.50523  -0.49953  -0.48267  -0.46275
 Alpha  occ. eigenvalues --   -0.45751  -0.45626  -0.44604  -0.44480  -0.41386
 Alpha  occ. eigenvalues --   -0.41034  -0.39719  -0.38432  -0.38166  -0.37499
 Alpha  occ. eigenvalues --   -0.37145  -0.35996  -0.34709  -0.32099  -0.30204
 Alpha  occ. eigenvalues --   -0.27785  -0.24745  -0.23997  -0.23346  -0.20532
 Alpha virt. eigenvalues --   -0.02619  -0.00230   0.02150   0.03591   0.04188
 Alpha virt. eigenvalues --    0.05006   0.10048   0.11379   0.13330   0.13866
 Alpha virt. eigenvalues --    0.14014   0.14739   0.14915   0.15048   0.15923

 Mulliken charges:
               1
     1  C   -0.363278
     2  C   -0.148875
     3  N   -0.290826
     4  C    0.250910
     5  C    0.032136
     6  C   -0.115940
     7  C   -0.102889
     8  C   -0.318268
     9  C    0.326939
    10  C   -0.324176
    11  C   -0.185424
    12  C    0.329027
    13  C   -0.468789
    14  C   -0.353322
    15  H    0.116175
    16  H    0.126624
    17  H    0.132057
    18  H    0.100459
    19  H    0.118394
    20  H    0.109585
    21  H    0.103803
    22  H    0.114396
    23  H    0.117339
    24  H    0.091193
    25  H    0.123632
    26  H    0.120381
    27  H    0.128252
    28  H    0.125015
    29  H    0.105469
 Sum of Mulliken charges =   0.00000

 Dipole moment (field-independent basis, Debye):
    X=              0.3881    Y=             -1.2487    Z=              0.6465  Tot=              1.4587
 Quadrupole moment (field-independent basis, Debye-Ang):
   XX=            -79.5459   YY=            -79.7323   ZZ=            -83.9023
   XY=             -2.0712   XZ=              3.5354   YZ=              0.5025

  Exact polarizability: 210.381  -8.123 150.648  -2.242   2.403  96.492
 Approx polarizability: 300.523 -10.049 235.941  -8.314   8.578 157.168

                      1                      2                      3
                      A                      A                      A
 Frequencies --     37.1786                41.0089                74.3503
 Red. masses --      3.3425                 3.2314                 2.8922
 Frc consts  --      0.0027                 0.0032                 0.0094
 IR Inten    --      0.2364                 0.0824                 0.0911

                      4                      5                      6
                      A                      A                      A
 Frequencies --    122.8334               128.8192               154.2005
 Red. masses --      2.8801                 3.1955                 3.7350
 Frc consts  --      0.0256                 0.0312                 0.0523
 IR Inten    --      0.9929                 1.5270                 0.9896

                      7                      8                      9
                      A                      A                      A
 Frequencies --    176.1072               195.8169               201.4209
 Red. masses --      2.0912                 2.2661                 1.3325
 Frc consts  --      0.0382                 0.0512                 0.0319
 IR Inten    --      2.2895                 2.6418                 0.1221

                     10                     11                     12
                      A                      A                      A
 Frequencies --    244.8504               256.8204               290.5649
 Red. masses --      2.9509                 1.4612                 3.0604
 Frc consts  --      0.1042                 0.0568                 0.1522
 IR Inten    --      0.5769                 3.8787                 0.9561

                     13                     14                     15
                      A                      A                      A
 Frequencies --    299.1604               358.3978               379.8569
 Red. masses --      2.7244                 2.9171                 2.5204
 Frc consts  --      0.1437                 0.2208                 0.2143
 IR Inten    --      0.8944                 0.6619                 0.5807

                     16                     17                     18
                      A                      A                      A
 Frequencies --    434.8754               441.9626               486.9170
 Red. masses --      3.1759                 2.2468                 4.3526
 Frc consts  --      0.3539                 0.2586                 0.6080
 IR Inten    --      5.4745                 0.5816                 4.7551

                     19                     20                     21
                      A                      A                      A
 Frequencies --    506.4881               533.3787               593.4783
 Red. masses --      3.7452                 6.1900                 5.8175
 Frc consts  --      0.5661                 1.0376                 1.2072
 IR Inten    --      1.6479                 7.9006                 9.1492

                     22                     23                     24
                      A                      A                      A
 Frequencies --    621.9546               650.9077               689.4437
 Red. masses --      5.4120                 3.2607                 3.6328
 Frc consts  --      1.2335                 0.8139                 1.0174
 IR Inten    --     17.5306                 4.3982                 4.8410

                     25                     26                     27
                      A                      A                      A
 Frequencies --    727.9920               774.1796               810.9945
 Red. masses --      2.2083                 2.6199                 1.4338
 Frc consts  --      0.6895                 0.9252                 0.5556
 IR Inten    --     46.5163                 1.7096                 1.7512

                     28                     29                     30
                      A                      A                      A
 Frequencies --    824.5829               831.8146               853.4991
 Red. masses --      1.8601                 1.8849                 1.8894
 Frc consts  --      0.7452                 0.7684                 0.8109
 IR Inten    --      1.9087                30.0535                20.7774

                     31                     32                     33
                      A                      A                      A
 Frequencies --    859.9204               894.4623               931.6103
 Red. masses --      1.4809                 3.0853                 1.8451
 Frc consts  --      0.6452                 1.4544                 0.9435
 IR Inten    --      0.9555                 5.9218                 6.1787

                     34                     35                     36
                      A                      A                      A
 Frequencies --    977.3898               996.8702              1022.7855
 Red. masses --      2.6515                 1.5113                 3.0793
 Frc consts  --      1.4924                 0.8849                 1.8979
 IR Inten    --      3.0583                23.8469                 7.6033

                     37                     38                     39
                      A                      A                      A
 Frequencies --   1035.3836              1051.7017              1063.2655
 Red. masses --      2.0191                 1.7599                 1.5544
 Frc consts  --      1.2753                 1.1469                 1.0354
 IR Inten    --      7.4230                17.1326                 0.3495

                     40                     41                     42
                      A                      A                      A
 Frequencies --   1098.6734              1107.5826              1122.1900
 Red. masses --      3.0655                 2.0938                 1.6703
 Frc consts  --      2.1802                 1.5133                 1.2393
 IR Inten    --      2.8400                10.1765                 6.9611

                     43                     44                     45
                      A                      A                      A
 Frequencies --   1149.2242              1163.4928              1242.7133
 Red. masses --      1.6313                 1.6350                 1.3323
 Frc consts  --      1.2694                 1.3041                 1.2123
 IR Inten    --      0.9880                 3.1437                12.8913

                     46                     47                     48
                      A                      A                      A
 Frequencies --   1248.9009              1262.6188              1293.2175
 Red. masses --      1.3787                 1.3940                 1.1441
 Frc consts  --      1.2670                 1.3094                 1.1273
 IR Inten    --      0.6010                 4.6589                 5.5189

                     49                     50                     51
                      A                      A                      A
 Frequencies --   1303.5852              1346.2879              1368.4171
 Red. masses --      1.2271                 1.5594                 1.2868
 Frc consts  --      1.2286                 1.6653                 1.4197
 IR Inten    --     21.3280                 4.2884                74.7185

                     52                     53                     54
                      A                      A                      A
 Frequencies --   1375.8333              1390.4871              1407.7158
 Red. masses --      1.3561                 2.8322                 1.2513
 Frc consts  --      1.5124                 3.2263                 1.4610
 IR Inten    --      8.0931                 5.4052                 6.0638

                     55                     56                     57
                      A                      A                      A
 Frequencies --   1409.0546              1461.4132              1467.2153
 Red. masses --      1.2535                 3.4588                 1.0829
 Frc consts  --      1.4663                 4.3523                 1.3735
 IR Inten    --      2.3904                85.8981                 4.6154

                     58                     59                     60
                      A                      A                      A
 Frequencies --   1479.3862              1487.9004              1490.0858
 Red. masses --      1.0510                 1.0435                 1.0673
 Frc consts  --      1.3552                 1.3611                 1.3962
 IR Inten    --      9.0464                 5.6932                 5.5996

                     61                     62                     63
                      A                      A                      A
 Frequencies --   1492.2497              1509.7773              1643.6792
 Red. masses --      1.0626                 1.0742                 6.7956
 Frc consts  --      1.3941                 1.4426                10.8171
 IR Inten    --      2.1744                 6.2740                 9.7863

                     64                     65                     66
                      A                      A                      A
 Frequencies --   1674.7406              1983.6473              2142.9959
 Red. masses --      6.9324                10.3529                11.7304
 Frc consts  --     11.4558                24.0016                31.7398
 IR Inten    --      1.7608                28.0941               600.2869

                     67                     68                     69
                      A                      A                      A
 Frequencies --   3006.2909              3015.0841              3031.5414
 Red. masses --      1.0622                 1.0382                 1.0581
 Frc consts  --      5.6562                 5.5609                 5.7295
 IR Inten    --     44.3508                25.8919                17.5579

                     70                     71                     72
                      A                      A                      A
 Frequencies --   3042.9331              3061.6897              3062.7442
 Red. masses --      1.0347                 1.1001                 1.0985
 Frc consts  --      5.6447                 6.0759                 6.0714
 IR Inten    --     25.7347                13.5870                20.0590

                     73                     74                     75
                      A                      A                      A
 Frequencies --   3080.9292              3095.8356              3113.3056
 Red. masses --      1.1040                 1.0850                 1.0987
 Frc consts  --      6.1740                 6.1266                 6.2742
 IR Inten    --     16.7320                11.1786                10.3665

                     76                     77                     78
                      A                      A                      A
 Frequencies --   3116.2949              3123.1105              3123.8699
 Red. masses --      1.1020                 1.0875                 1.1028
 Frc consts  --      6.3052                 6.2495                 6.3405
 IR Inten    --     29.9125                42.7174                24.1466

                     79                     80                     81
                      A                      A                      A
 Frequencies --   3134.1708              3154.6176              3171.3183
 Red. masses --      1.0845                 1.0892                 1.0922
 Frc consts  --      6.2763                 6.3860                 6.4720
 IR Inten    --      9.4296                15.5538                17.5083

 - Thermochemistry -
 -------------------
 Temperature   298.150 Kelvin.  Pressure   1.00000 Atm.
 Atom     1 has atomic number  6 and mass  12.00000

 Molecular mass:   185.12045 amu.
 Principal axes and moments of inertia in atomic units:
                           1         2         3
     Eigenvalues --  1579.335664665.005835822.52691
           X            0.99993   0.00833   0.00835
           Y           -0.00826   0.99993  -0.00829
           Z           -0.00841   0.00822   0.99993
 This molecule is an asymmetric top.
 Rotational symmetry number  1.
 Warning -- assumption of classical behavior for rotation
           may cause significant error
 Rotational temperatures (Kelvin)      0.05484     0.01857     0.01488
 Rotational constants (GHZ):           1.14272     0.38687     0.30996
 Zero-point vibrational energy     634224.6 (Joules/Mol)
                                  151.58331 (Kcal/Mol)
 Warning -- explicit consideration of  21 degrees of freedom as
           vibrations may cause significant error
 Vibrational temperatures:     53.49    59.00   106.97   176.73   185.34
          (Kelvin)            221.86   253.38   281.74   289.80   352.29
                              369.51   418.06   430.43   515.65   546.53
                              625.69   635.89   700.56   728.72   767.41
                              853.88   894.85   936.51   991.96  1047.42
                             1113.87  1166.84  1186.39  1196.80  1227.99
                             1237.23  1286.93  1340.38  1406.25  1434.27
                             1471.56  1489.69  1513.16  1529.80  1580.75
                             1593.56  1614.58  1653.48  1674.01  1787.99
                             1796.89  1816.63  1860.65  1875.57  1937.01
                             1968.85  1979.52  2000.60  2025.39  2027.32
                             2102.65  2111.00  2128.51  2140.76  2143.90
                             2147.01  2172.23  2364.89  2409.58  2854.03
                             3083.29  4325.38  4338.03  4361.71  4378.10
                             4405.09  4406.61  4432.77  4454.22  4479.35
                             4483.65  4493.46  4494.55  4509.37  4538.79
                             4562.82

 Zero-point correction=                           0.241563 (Hartree/Particle)
 Thermal correction to Energy=                    0.256004
 Thermal correction to Enthalpy=                  0.256948
 Thermal correction to Gibbs Free Energy=         0.199876
 Sum of electronic and zero-point Energies=           -558.779648
 Sum of electronic and thermal Energies=              -558.765207
 Sum of electronic and thermal Enthalpies=            -558.764263
 Sum of electronic and thermal Free Energies=         -558.821335

                     E (Thermal)             CV                S
                      KCal/Mol        Cal/Mol-Kelvin    Cal/Mol-Kelvin
 Total                  160.645             54.388            120.119
 Electronic               0.000              0.000              0.000
 Translational            0.889              2.981             41.554
 Rotational               0.889              2.981             32.128
 Vibrational            158.867             48.426             46.437
 Vibration     1          0.594              1.982              5.404
 Vibration     2          0.594              1.981              5.210
 Vibration     3          0.599              1.966              4.035
 Vibration     4          0.610              1.930              3.055
 Vibration     5          0.611              1.924              2.964
 Vibration     6          0.620              1.898              2.620
 Vibration     7          0.628              1.872              2.369
 Vibration     8          0.636              1.846              2.172
 Vibration     9          0.638              1.838              2.120
 Vibration    10          0.660              1.771              1.767
 Vibration    11          0.666              1.751              1.683
 Vibration    12          0.687              1.691              1.471
 Vibration    13          0.692              1.675              1.422
 Vibration    14          0.733              1.558              1.129
 Vibration    15          0.750              1.513              1.040
 Vibration    16          0.795              1.394              0.843
 Vibration    17          0.802              1.379              0.820
 Vibration    18          0.843              1.279              0.692
 Vibration    19          0.862              1.236              0.642
 Vibration    20          0.888              1.176              0.580
 Vibration    21          0.951              1.046              0.461

                           ! Non-Optimized Parameters !
 Normal termination of Gaussian 16 at Sat May 20 08:26:42 2023.
