 Gaussian 16, Revision A.03,
 Gaussian 16:  ES64L-G16RevA.03 25-Dec-2016

 -----------------------------
 # opt freq b3lyp/6-31g(2df,p)
 -----------------------------

 -------------------
 Title Card Required
 -------------------
 Symbolic Z-matrix:
 Charge =  0 Multiplicity = 1

 SCF Done:  E(RB3LYP) =  -1332.22273659     A.U. after   34 cycles
 SCF Done:  E(RB3LYP) =  -1332.38463930     A.U. after   30 cycles
 SCF Done:  E(RB3LYP) =  -1332.61724052     A.U. after   25 cycles
 SCF Done:  E(RB3LYP) =  -1332.81570780     A.U. after   18 cycles
 SCF Done:  E(RB3LYP) =  -1332.84187326     A.U. after   17 cycles
 SCF Done:  E(RB3LYP) =  -1332.95563263     A.U. after   20 cycles
 SCF Done:  E(RB3LYP) =  -1333.09445647     A.U. after   16 cycles
 SCF Done:  E(RB3LYP) =  -1333.14461254     A.U. after   15 cycles
 SCF Done:  E(RB3LYP) =  -1333.14771581     A.U. after   10 cycles
 SCF Done:  E(RB3LYP) =  -1333.18066814     A.U. after   13 cycles
 SCF Done:  E(RB3LYP) =  -1333.32688365     A.U. after   10 cycles
 SCF Done:  E(RB3LYP) =  -1333.32689074     A.U. after   11 cycles
 SCF Done:  E(RB3LYP) =  -1333.32689445     A.U. after   10 cycles
 SCF Done:  E(RB3LYP) =  -1333.32689756     A.U. after   11 cycles
 SCF Done:  E(RB3LYP) =  -1333.32690002     A.U. after   10 cycles
 SCF Done:  E(RB3LYP) =  -1333.32690117     A.U. after    9 cycles
 SCF Done:  E(RB3LYP) =  -1333.32690153     A.U. after    8 cycles
 SCF Done:  E(RB3LYP) =  -1333.32690186     A.U. after    8 cycles
 SCF Done:  E(RB3LYP) =  -1333.32690197     A.U. after    8 cycles
 Optimization completed.
    -- Stationary point found.
 Normal termination of Gaussian 16 at Fri May 19 14:05:25 2023.

 ----------------------------------------------------------------------
 #N Geom=AllCheck Guess=TCheck SCRF=Check GenChk RB3LYP/6-31G(2df,p) Fr
 eq
 ----------------------------------------------------------------------

 Structure from the checkpoint file:  "CCNNC1dCCdCSCdCdC1CCdS.chk"
 -------------------
 Title Card Required
 -------------------
 Charge =  0 Multiplicity = 1

                         Standard orientation:
 ---------------------------------------------------------------------
 Center     Atomic      Atomic             Coordinates (Angstroms)
 Number     Number       Type             X           Y           Z
 ---------------------------------------------------------------------
      1          6           0       -3.647841   -3.259194   -1.202253
      2          6           0       -2.389411   -2.959020   -0.394762
      3          7           0       -2.527467   -1.686173    0.316852
      4          7           0       -1.435172   -1.383558    1.171682
      5          6           0       -0.364954   -0.681344    0.537385
      6          6           0        0.925596   -1.088833    0.816982
      7          6           0        2.191539   -0.559438    0.385492
      8          6           0        3.404291   -1.322452    0.549550
      9         16           0        4.091291    0.806535   -0.689163
     10          6           0        4.498191   -0.726766    0.007498
     11          6           0        2.442831    0.641514   -0.255644
     12          6           0       -0.565622    0.492302   -0.234104
     13          6           0       -1.839028    1.210833    0.011493
     14          6           0       -1.846260    2.617338   -0.505292
     15         16           0       -2.502956    3.900075    0.236164
     16          1           0       -3.539130   -4.201115   -1.746658
     17          1           0       -3.844955   -2.461565   -1.923843
     18          1           0       -4.524443   -3.352004   -0.550841
     19          1           0       -1.521878   -2.873580   -1.058736
     20          1           0       -2.178937   -3.793600    0.300617
     21          1           0       -3.364417   -1.695828    0.891789
     22          1           0       -1.100264   -2.218003    1.656165
     23          1           0        1.023202   -1.930749    1.506257
     24          1           0        1.714570    1.404145   -0.480383
     25          1           0        3.430077   -2.290038    1.036413
     26          1           0        5.515885   -1.084456   -0.021719
     27          1           0       -2.273767    1.143094    1.019486
     28          1           0       -2.526821    0.616875   -0.630571
     29          1           0       -1.339994    2.729557   -1.467817
 ---------------------------------------------------------------------

 SCF Done:  E(RB3LYP) =  -1333.32690197     A.U. after    1 cycles

 The electronic state is 1-A.
 Alpha  occ. eigenvalues --  -88.91473 -88.84702 -14.36324 -14.35814 -10.24204
 Alpha  occ. eigenvalues --  -10.22300 -10.22109 -10.21853 -10.21615 -10.21358
 Alpha  occ. eigenvalues --  -10.20563 -10.19832 -10.19234 -10.19024 -10.18767
 Alpha  occ. eigenvalues --   -7.97618  -7.91265  -5.93989  -5.93621  -5.93456
 Alpha  occ. eigenvalues --   -5.87606  -5.87512  -5.86771  -0.99101  -0.88748
 Alpha  occ. eigenvalues --   -0.85170  -0.81085  -0.78701  -0.74950  -0.73221
 Alpha  occ. eigenvalues --   -0.73091  -0.69105  -0.64061  -0.62737  -0.57528
 Alpha  occ. eigenvalues --   -0.56181  -0.54597  -0.53357  -0.52737  -0.48998
 Alpha  occ. eigenvalues --   -0.48468  -0.47313  -0.44958  -0.44064  -0.42170
 Alpha  occ. eigenvalues --   -0.41020  -0.40178  -0.39844  -0.39151  -0.38956
 Alpha  occ. eigenvalues --   -0.38001  -0.37627  -0.36557  -0.35437  -0.34507
 Alpha  occ. eigenvalues --   -0.33789  -0.28481  -0.27573  -0.25592  -0.24958
 Alpha  occ. eigenvalues --   -0.21363  -0.20979  -0.19306
 Alpha virt. eigenvalues --   -0.09586  -0.06236  -0.01157   0.02726   0.03457
 Alpha virt. eigenvalues --    0.06839   0.08592   0.09817   0.10160   0.10578
 Alpha virt. eigenvalues --    0.11100   0.11463   0.12754   0.13019   0.14027

 Mulliken charges:
               1
     1  C   -0.394256
     2  C   -0.107001
     3  N   -0.268929
     4  N   -0.365327
     5  C    0.327132
     6  C   -0.231252
     7  C    0.311882
     8  C   -0.157811
     9  S    0.009906
    10  C   -0.163158
    11  C   -0.221531
    12  C   -0.218526
    13  C   -0.248052
    14  C    0.054425
    15  S   -0.272419
    16  H    0.125497
    17  H    0.133830
    18  H    0.117730
    19  H    0.121632
    20  H    0.077816
    21  H    0.232838
    22  H    0.210733
    23  H    0.088807
    24  H    0.153492
    25  H    0.106052
    26  H    0.133679
    27  H    0.129534
    28  H    0.176901
    29  H    0.136378
 Sum of Mulliken charges =  -0.00000

 Dipole moment (field-independent basis, Debye):
    X=              0.7530    Y=             -6.0709    Z=              0.5075  Tot=              6.1385
 Quadrupole moment (field-independent basis, Debye-Ang):
   XX=            -94.2844   YY=           -107.3479   ZZ=           -103.6893
   XY=              9.8040   XZ=              2.2547   YZ=             -5.0465

  Exact polarizability: 278.284 -19.721 199.935 -11.723 -14.106 115.360
 Approx polarizability: 418.877 -34.238 313.184 -23.529 -31.744 204.427

                      1                      2                      3
                      A                      A                      A
 Frequencies --     25.5279                30.8959                39.4614
 Red. masses --      8.7248                 6.0436                 3.8831
 Frc consts  --      0.0033                 0.0034                 0.0036
 IR Inten    --      1.7372                 0.2922                 0.8039

                      4                      5                      6
                      A                      A                      A
 Frequencies --     45.2903                85.1656                95.8283
 Red. masses --      4.5142                 2.3116                 3.9996
 Frc consts  --      0.0055                 0.0099                 0.0216
 IR Inten    --      0.7448                 1.1496                 2.5713

                      7                      8                      9
                      A                      A                      A
 Frequencies --    103.1332               123.3205               152.4933
 Red. masses --      2.6927                 3.0047                 3.6185
 Frc consts  --      0.0169                 0.0269                 0.0496
 IR Inten    --      1.8936                 5.1355                 5.2473

                     10                     11                     12
                      A                      A                      A
 Frequencies --    182.8447               234.3222               243.2879
 Red. masses --      3.6274                 2.3587                 1.8875
 Frc consts  --      0.0715                 0.0763                 0.0658
 IR Inten    --     16.4043                 2.8892                 1.9584

                     13                     14                     15
                      A                      A                      A
 Frequencies --    272.7438               288.7526               309.7405
 Red. masses --      2.7206                 4.5271                 4.1973
 Frc consts  --      0.1192                 0.2224                 0.2373
 IR Inten    --      1.9212                 3.5510                10.9383

                     16                     17                     18
                      A                      A                      A
 Frequencies --    350.7244               387.7341               411.3607
 Red. masses --      3.6572                 4.2522                 3.4590
 Frc consts  --      0.2650                 0.3766                 0.3449
 IR Inten    --      4.2371                25.5758                 4.5948

                     19                     20                     21
                      A                      A                      A
 Frequencies --    465.6777               472.1229               601.5625
 Red. masses --      4.0113                 3.8541                 2.3240
 Frc consts  --      0.5125                 0.5062                 0.4955
 IR Inten    --      0.5655                 3.2942                 9.9146

                     22                     23                     24
                      A                      A                      A
 Frequencies --    607.0877               631.8179               645.6887
 Red. masses --      7.4650                 2.8982                 2.2265
 Frc consts  --      1.6210                 0.6817                 0.5469
 IR Inten    --      7.4876                20.5568                47.1125

                     25                     26                     27
                      A                      A                      A
 Frequencies --    662.2326               700.4725               713.0990
 Red. masses --      2.8610                 1.3158                 4.1893
 Frc consts  --      0.7392                 0.3804                 1.2551
 IR Inten    --     43.8093                 8.4137                51.2932

                     28                     29                     30
                      A                      A                      A
 Frequencies --    744.8688               810.0375               814.1852
 Red. masses --      2.1724                 1.3173                 1.4210
 Frc consts  --      0.7101                 0.5093                 0.5550
 IR Inten    --     30.3416                17.0570                60.5077

                     31                     32                     33
                      A                      A                      A
 Frequencies --    819.2825               837.5448               853.7432
 Red. masses --      1.1109                 4.1791                 2.5030
 Frc consts  --      0.4393                 1.7272                 1.0749
 IR Inten    --     18.1791                16.8661                51.1869

                     34                     35                     36
                      A                      A                      A
 Frequencies --    881.1504               896.4538               908.2997
 Red. masses --      3.7892                 1.3369                 2.2065
 Frc consts  --      1.7334                 0.6330                 1.0725
 IR Inten    --      8.0931                 6.3392                35.5697

                     37                     38                     39
                      A                      A                      A
 Frequencies --    932.8836               943.8982               976.4689
 Red. masses --      1.4428                 1.7630                 2.7354
 Frc consts  --      0.7398                 0.9254                 1.5367
 IR Inten    --     18.9529                19.9956                 5.4609

                     40                     41                     42
                      A                      A                      A
 Frequencies --    997.7470              1041.0478              1048.2064
 Red. masses --      2.5199                 2.6469                 2.5664
 Frc consts  --      1.4780                 1.6902                 1.6614
 IR Inten    --     20.0784                27.5301                17.5016

                     43                     44                     45
                      A                      A                      A
 Frequencies --   1083.7621              1106.9136              1125.9729
 Red. masses --      2.2303                 1.1204                 2.5423
 Frc consts  --      1.5434                 0.8088                 1.8991
 IR Inten    --     39.9105                13.8857                 9.3092

                     46                     47                     48
                      A                      A                      A
 Frequencies --   1150.8336              1152.8190              1179.4857
 Red. masses --      2.4985                 2.3720                 1.8583
 Frc consts  --      1.9496                 1.8573                 1.5232
 IR Inten    --     84.5437                55.5157                18.0289

                     49                     50                     51
                      A                      A                      A
 Frequencies --   1211.2569              1216.2018              1239.1526
 Red. masses --      1.8529                 1.6003                 1.7619
 Frc consts  --      1.6017                 1.3947                 1.5940
 IR Inten    --      4.4108                18.8036               120.6593

                     52                     53                     54
                      A                      A                      A
 Frequencies --   1274.1711              1295.2679              1336.7476
 Red. masses --      1.7522                 1.1549                 1.1268
 Frc consts  --      1.6761                 1.1416                 1.1863
 IR Inten    --     42.0257                12.4928                56.9206

                     55                     56                     57
                      A                      A                      A
 Frequencies --   1372.6068              1375.6560              1384.2990
 Red. masses --      2.2382                 1.6938                 1.8557
 Frc consts  --      2.4845                 1.8885                 2.0952
 IR Inten    --     73.3610                25.1103                89.4139

                     58                     59                     60
                      A                      A                      A
 Frequencies --   1394.6952              1412.7056              1457.1045
 Red. masses --      1.6713                 1.2990                 4.7648
 Frc consts  --      1.9155                 1.5274                 5.9604
 IR Inten    --     81.5122                19.2033                23.7584

                     61                     62                     63
                      A                      A                      A
 Frequencies --   1485.2885              1495.9855              1502.5130
 Red. masses --      1.1028                 1.0722                 1.1795
 Frc consts  --      1.4335                 1.4138                 1.5689
 IR Inten    --     15.3569                 6.4495                20.4350

                     64                     65                     66
                      A                      A                      A
 Frequencies --   1514.2753              1536.2229              1558.4591
 Red. masses --      1.1421                 1.2215                 5.7044
 Frc consts  --      1.5429                 1.6985                 8.1630
 IR Inten    --      0.7627                 3.0950                34.5499

                     67                     68                     69
                      A                      A                      A
 Frequencies --   1583.9862              2903.8004              2923.8795
 Red. masses --      3.9452                 1.0671                 1.0729
 Frc consts  --      5.8321                 5.3016                 5.4044
 IR Inten    --     48.6568                19.5859                71.2591

                     70                     71                     72
                      A                      A                      A
 Frequencies --   3011.5394              3036.5358              3058.9408
 Red. masses --      1.0850                 1.0389                 1.0854
 Frc consts  --      5.7975                 5.6440                 5.9837
 IR Inten    --     15.4995                21.7420                12.8435

                     73                     74                     75
                      A                      A                      A
 Frequencies --   3091.4016              3098.4585              3105.1293
 Red. masses --      1.0865                 1.0850                 1.0985
 Frc consts  --      6.1178                 6.1370                 6.2405
 IR Inten    --     11.8485                24.9993                28.5952

                     76                     77                     78
                      A                      A                      A
 Frequencies --   3124.1727              3202.8272              3259.6347
 Red. masses --      1.1024                 1.0903                 1.0971
 Frc consts  --      6.3394                 6.5898                 6.8679
 IR Inten    --     21.2083                 5.2668                 0.8127

                     79                     80                     81
                      A                      A                      A
 Frequencies --   3268.5709              3402.4587              3504.7713
 Red. masses --      1.0940                 1.0733                 1.0749
 Frc consts  --      6.8863                 7.3209                 7.7795
 IR Inten    --      9.7797                12.4715                 0.9878

 - Thermochemistry -
 -------------------
 Temperature   298.150 Kelvin.  Pressure   1.00000 Atm.
 Atom     1 has atomic number  6 and mass  12.00000

 Molecular mass:   238.05984 amu.
 Principal axes and moments of inertia in atomic units:
                           1         2         3
     Eigenvalues --  4090.894686844.55099**********
           X            0.99862   0.05157   0.01020
           Y           -0.05159   0.99867   0.00210
           Z           -0.01008  -0.00263   0.99995
 This molecule is an asymmetric top.
 Rotational symmetry number  1.
 Warning -- assumption of classical behavior for rotation
           may cause significant error
 Rotational temperatures (Kelvin)      0.02117     0.01265     0.00846
 Rotational constants (GHZ):           0.44116     0.26368     0.17621
 Zero-point vibrational energy     597096.3 (Joules/Mol)
                                  142.70945 (Kcal/Mol)
 Warning -- explicit consideration of  22 degrees of freedom as
           vibrations may cause significant error
 Vibrational temperatures:     36.73    44.45    56.78    65.16   122.53
          (Kelvin)            137.88   148.39   177.43   219.40   263.07
                              337.14   350.04   392.42   415.45   445.65
                              504.61   557.86   591.86   670.01   679.28
                              865.51   873.46   909.05   929.00   952.80
                             1007.82  1025.99  1071.70  1165.46  1171.43
                             1178.76  1205.04  1228.35  1267.78  1289.80
                             1306.84  1342.21  1358.06  1404.92  1435.54
                             1497.84  1508.14  1559.29  1592.60  1620.02
                             1655.79  1658.65  1697.02  1742.73  1749.84
                             1782.86  1833.25  1863.60  1923.28  1974.88
                             1979.26  1991.70  2006.66  2032.57  2096.45
                             2137.00  2152.39  2161.78  2178.70  2210.28
                             2242.28  2279.00  4177.92  4206.81  4332.93
                             4368.90  4401.13  4447.84  4457.99  4467.59
                             4494.99  4608.15  4689.89  4702.74  4895.38
                             5042.58

 Zero-point correction=                           0.227422 (Hartree/Particle)
 Thermal correction to Energy=                    0.243732
 Thermal correction to Enthalpy=                  0.244677
 Thermal correction to Gibbs Free Energy=         0.180353
 Sum of electronic and zero-point Energies=          -1333.099480
 Sum of electronic and thermal Energies=             -1333.083170
 Sum of electronic and thermal Enthalpies=           -1333.082225
 Sum of electronic and thermal Free Energies=        -1333.146549

                     E (Thermal)             CV                S
                      KCal/Mol        Cal/Mol-Kelvin    Cal/Mol-Kelvin
 Total                  152.944             59.024            135.380
 Electronic               0.000              0.000              0.000
 Translational            0.889              2.981             42.303
 Rotational               0.889              2.981             34.016
 Vibrational            151.167             53.062             59.060
 Vibration     1          0.593              1.985              6.150
 Vibration     2          0.594              1.984              5.771
 Vibration     3          0.594              1.981              5.286
 Vibration     4          0.595              1.979              5.013
 Vibration     5          0.601              1.959              3.768
 Vibration     6          0.603              1.952              3.537
 Vibration     7          0.605              1.947              3.394
 Vibration     8          0.610              1.930              3.048
 Vibration     9          0.619              1.900              2.641
 Vibration    10          0.630              1.863              2.299
 Vibration    11          0.654              1.788              1.846
 Vibration    12          0.659              1.774              1.779
 Vibration    13          0.676              1.724              1.579
 Vibration    14          0.685              1.695              1.481
 Vibration    15          0.699              1.655              1.364
 Vibration    16          0.728              1.574              1.163
 Vibration    17          0.756              1.496              1.009
 Vibration    18          0.775              1.446              0.922
 Vibration    19          0.823              1.326              0.750
 Vibration    20          0.829              1.312              0.732
 Vibration    21          0.960              1.028              0.447
 Vibration    22          0.966              1.017              0.438

                           ! Non-Optimized Parameters !
 Normal termination of Gaussian 16 at Fri May 19 15:48:18 2023.
