 Gaussian 16, Revision A.03,
 Gaussian 16:  ES64L-G16RevA.03 25-Dec-2016

 -----------------------------
 # opt freq b3lyp/6-31g(2df,p)
 -----------------------------

 -------------------
 Title Card Required
 -------------------
 Symbolic Z-matrix:
 Charge =  0 Multiplicity = 1

 SCF Done:  E(RB3LYP) =  -1615.58384383     A.U. after   26 cycles
 SCF Done:  E(RB3LYP) =  -1615.64919959     A.U. after   20 cycles
 SCF Done:  E(RB3LYP) =  -1615.71127923     A.U. after   19 cycles
 SCF Done:  E(RB3LYP) =  -1615.75550988     A.U. after   18 cycles
 SCF Done:  E(RB3LYP) =  -1615.77974939     A.U. after   17 cycles
 SCF Done:  E(RB3LYP) =  -1615.79444931     A.U. after   16 cycles
 SCF Done:  E(RB3LYP) =  -1615.81384006     A.U. after   18 cycles
 SCF Done:  E(RB3LYP) =  -1615.82160247     A.U. after   16 cycles
 SCF Done:  E(RB3LYP) =  -1615.82623285     A.U. after   15 cycles
 SCF Done:  E(RB3LYP) =  -1615.82897278     A.U. after   15 cycles
 SCF Done:  E(RB3LYP) =  -1615.83471831     A.U. after    9 cycles
 SCF Done:  E(RB3LYP) =  -1615.83471888     A.U. after   10 cycles
 SCF Done:  E(RB3LYP) =  -1615.83471955     A.U. after    9 cycles
 SCF Done:  E(RB3LYP) =  -1615.83472129     A.U. after   12 cycles
 SCF Done:  E(RB3LYP) =  -1615.83472303     A.U. after   11 cycles
 SCF Done:  E(RB3LYP) =  -1615.83472450     A.U. after   12 cycles
 SCF Done:  E(RB3LYP) =  -1615.83472517     A.U. after    9 cycles
 SCF Done:  E(RB3LYP) =  -1615.83472556     A.U. after    8 cycles
 SCF Done:  E(RB3LYP) =  -1615.83472567     A.U. after    8 cycles
 Optimization completed.
    -- Stationary point found.
 Normal termination of Gaussian 16 at Fri May 19 10:30:27 2023.

 ----------------------------------------------------------------------
 #N Geom=AllCheck Guess=TCheck SCRF=Check GenChk RB3LYP/6-31G(2df,p) Fr
 eq
 ----------------------------------------------------------------------

 Structure from the checkpoint file:  "CCqCrd[SH]C1dCCdCNdNSCd[SH]1.chk"
 -------------------
 Title Card Required
 -------------------
 Charge =  0 Multiplicity = 1

                         Standard orientation:
 ---------------------------------------------------------------------
 Center     Atomic      Atomic             Coordinates (Angstroms)
 Number     Number       Type             X           Y           Z
 ---------------------------------------------------------------------
      1          6           0       -4.164233   -0.979570    0.940700
      2          6           0       -3.728683    0.078835   -0.032603
      3          6           0       -4.230857    1.487701    0.157671
      4         16           0       -2.355493   -0.100018   -0.941695
      5          6           0       -0.605204   -0.489641   -0.148558
      6          6           0       -0.133994   -1.735187   -0.028436
      7          6           0        1.213869   -1.944883    0.519782
      8          6           0        2.322528   -2.139670   -0.203746
      9          7           0        3.373858   -1.256108    0.319097
     10          7           0        3.506644   -0.389657   -0.544415
     11         16           0        3.342075    1.400935    0.287787
     12          6           0        1.826126    1.667142   -0.374600
     13         16           0        0.261726    1.141348    0.255013
     14          1           0       -5.250515   -0.925499    1.081932
     15          1           0       -3.712089   -0.873061    1.939537
     16          1           0       -3.923508   -1.988936    0.585095
     17          1           0       -5.327443    1.495872    0.098002
     18          1           0       -3.850966    2.165647   -0.612794
     19          1           0       -3.968017    1.919021    1.135645
     20          1           0       -2.404404   -1.422915   -1.263488
     21          1           0       -0.740810   -2.571829   -0.385489
     22          1           0        1.385965   -1.468794    1.484289
     23          1           0        2.371586   -2.472681   -1.235454
     24          1           0        1.668676    2.050763   -1.376751
     25          1           0        0.617762    0.868152    1.527767
 ---------------------------------------------------------------------

 SCF Done:  E(RB3LYP) =  -1615.83472567     A.U. after    1 cycles

 The electronic state is 1-A.
 Alpha  occ. eigenvalues --  -88.97016 -88.96209 -88.87374 -14.37209 -14.37009
 Alpha  occ. eigenvalues --  -10.23718 -10.23391 -10.22941 -10.21350 -10.20330
 Alpha  occ. eigenvalues --  -10.20313 -10.19473 -10.19103  -8.02675  -8.01657
 Alpha  occ. eigenvalues --   -7.93339  -5.98988  -5.98952  -5.98404  -5.97954
 Alpha  occ. eigenvalues --   -5.97900  -5.97493  -5.89846  -5.89517  -5.88865
 Alpha  occ. eigenvalues --   -1.02630  -0.86992  -0.84202  -0.82502  -0.76686
 Alpha  occ. eigenvalues --   -0.74656  -0.73441  -0.70282  -0.63180  -0.60704
 Alpha  occ. eigenvalues --   -0.56807  -0.56120  -0.54801  -0.48967  -0.48745
 Alpha  occ. eigenvalues --   -0.46684  -0.45260  -0.44382  -0.44010  -0.43255
 Alpha  occ. eigenvalues --   -0.42219  -0.41625  -0.39515  -0.39198  -0.38296
 Alpha  occ. eigenvalues --   -0.37854  -0.37600  -0.36793  -0.34130  -0.33211
 Alpha  occ. eigenvalues --   -0.30088  -0.25307  -0.23542  -0.21833  -0.19326
 Alpha  occ. eigenvalues --   -0.18403
 Alpha virt. eigenvalues --   -0.07310  -0.04755  -0.03391  -0.00225   0.00395
 Alpha virt. eigenvalues --    0.01136   0.02316   0.05572   0.06463   0.08438
 Alpha virt. eigenvalues --    0.09515   0.12133   0.12993   0.13455   0.13745

 Mulliken charges:
               1
     1  C   -0.438567
     2  C    0.147007
     3  C   -0.443318
     4  S   -0.002630
     5  C   -0.033381
     6  C   -0.131990
     7  C   -0.097342
     8  C   -0.041072
     9  N   -0.093331
    10  N   -0.183662
    11  S   -0.098311
    12  C   -0.165466
    13  S    0.040080
    14  H    0.129206
    15  H    0.120142
    16  H    0.108768
    17  H    0.124746
    18  H    0.130205
    19  H    0.115692
    20  H    0.129397
    21  H    0.118620
    22  H    0.116902
    23  H    0.124471
    24  H    0.130937
    25  H    0.192900
 Sum of Mulliken charges =   0.00000

 Dipole moment (field-independent basis, Debye):
    X=             -5.2977    Y=             -2.0195    Z=              0.0505  Tot=              5.6698
 Quadrupole moment (field-independent basis, Debye-Ang):
   XX=           -113.4274   YY=            -97.8132   ZZ=            -97.3804
   XY=             -1.5276   XZ=             -2.3032   YZ=              3.1265

  Exact polarizability: 293.950  -4.662 173.264  -8.905   3.216 112.133
 Approx polarizability: 501.486 -31.690 352.515 -23.701   3.934 205.392

                      1                      2                      3
                      A                      A                      A
 Frequencies --     21.9868                36.5692                55.6199
 Red. masses --      4.0983                 6.2010                 4.4159
 Frc consts  --      0.0012                 0.0049                 0.0080
 IR Inten    --      0.2883                 0.6057                 7.0757

                      4                      5                      6
                      A                      A                      A
 Frequencies --     66.0599                77.9772               118.9246
 Red. masses --      3.9715                 4.0732                 5.2897
 Frc consts  --      0.0102                 0.0146                 0.0441
 IR Inten    --      1.1802                 6.6506                11.3244

                      7                      8                      9
                      A                      A                      A
 Frequencies --    150.0614               165.6743               185.9077
 Red. masses --      5.1057                 2.7643                 1.4166
 Frc consts  --      0.0677                 0.0447                 0.0288
 IR Inten    --      4.4494                11.2412                 3.6800

                     10                     11                     12
                      A                      A                      A
 Frequencies --    203.8004               222.3104               236.5039
 Red. masses --      5.9110                 5.2547                 1.3155
 Frc consts  --      0.1446                 0.1530                 0.0434
 IR Inten    --     25.7032                 4.5048                 2.3474

                     13                     14                     15
                      A                      A                      A
 Frequencies --    246.6647               269.8218               277.7308
 Red. masses --      3.5192                 3.1263                 6.0541
 Frc consts  --      0.1262                 0.1341                 0.2751
 IR Inten    --     41.8180                 4.0679                29.7201

                     16                     17                     18
                      A                      A                      A
 Frequencies --    302.5910               323.9079               357.4739
 Red. masses --      3.7210                 2.9347                 3.8619
 Frc consts  --      0.2007                 0.1814                 0.2908
 IR Inten    --     14.9123                17.5349                 1.1751

                     19                     20                     21
                      A                      A                      A
 Frequencies --    374.0839               384.3830               402.9495
 Red. masses --      3.9313                 3.2638                 3.3425
 Frc consts  --      0.3241                 0.2841                 0.3198
 IR Inten    --     14.3875                14.2293                34.6450

                     22                     23                     24
                      A                      A                      A
 Frequencies --    424.3221               489.3602               534.2424
 Red. masses --      5.9905                 2.3007                 3.9835
 Frc consts  --      0.6355                 0.3246                 0.6699
 IR Inten    --     42.7938                10.6462                13.0765

                     25                     26                     27
                      A                      A                      A
 Frequencies --    612.3620               656.7222               675.2763
 Red. masses --      1.7119                 3.7022                 3.5971
 Frc consts  --      0.3782                 0.9408                 0.9664
 IR Inten    --     30.1761                21.9617                49.5056

                     28                     29                     30
                      A                      A                      A
 Frequencies --    679.7934               727.0335               766.4350
 Red. masses --      4.3700                 1.6329                 1.7204
 Frc consts  --      1.1898                 0.5085                 0.5954
 IR Inten    --     53.7946                 5.5170                29.2318

                     31                     32                     33
                      A                      A                      A
 Frequencies --    806.6883               847.9936               882.7933
 Red. masses --      2.1976                 1.7077                 4.5057
 Frc consts  --      0.8426                 0.7235                 2.0689
 IR Inten    --     91.2477                19.6921                31.7287

                     34                     35                     36
                      A                      A                      A
 Frequencies --    928.4151               972.9768               979.5892
 Red. masses --      3.0624                 1.4565                 1.3831
 Frc consts  --      1.5552                 0.8124                 0.7820
 IR Inten    --      5.2014                86.0112                 3.3624

                     37                     38                     39
                      A                      A                      A
 Frequencies --    982.4099               984.2362              1003.1814
 Red. masses --      1.4085                 1.3138                 1.2411
 Frc consts  --      0.8009                 0.7498                 0.7359
 IR Inten    --     11.5006                20.0667                13.5435

                     40                     41                     42
                      A                      A                      A
 Frequencies --   1064.1343              1104.6528              1123.1402
 Red. masses --      1.4029                 3.9054                 1.2937
 Frc consts  --      0.9360                 2.8078                 0.9615
 IR Inten    --      7.2003                 7.2047                22.9204

                     43                     44                     45
                      A                      A                      A
 Frequencies --   1218.0693              1254.0305              1258.7500
 Red. masses --      1.2069                 2.0308                 1.1059
 Frc consts  --      1.0550                 1.8816                 1.0324
 IR Inten    --      7.9375                 6.5999                 7.5397

                     46                     47                     48
                      A                      A                      A
 Frequencies --   1269.4261              1276.4682              1327.2143
 Red. masses --      2.8238                 1.5706                 1.2081
 Frc consts  --      2.6810                 1.5077                 1.2538
 IR Inten    --      9.8883                26.5578                13.2996

                     49                     50                     51
                      A                      A                      A
 Frequencies --   1407.2188              1424.1230              1462.2766
 Red. masses --      1.2359                 1.2049                 1.0475
 Frc consts  --      1.4420                 1.4397                 1.3196
 IR Inten    --      1.3190                26.9778                 5.6061

                     52                     53                     54
                      A                      A                      A
 Frequencies --   1474.4942              1491.5099              1510.5723
 Red. masses --      1.0457                 1.0460                 1.0581
 Frc consts  --      1.3395                 1.3710                 1.4225
 IR Inten    --     21.1773                 5.1245                 3.2378

                     55                     56                     57
                      A                      A                      A
 Frequencies --   1529.3893              1580.9013              1631.2394
 Red. masses --     12.6214                 8.2388                 6.7699
 Frc consts  --     17.3938                12.1318                10.6137
 IR Inten    --     48.7224                54.2591                34.9956

                     58                     59                     60
                      A                      A                      A
 Frequencies --   2467.6148              2629.3775              2977.3076
 Red. masses --      1.0377                 1.0380                 1.0482
 Frc consts  --      3.7228                 4.2280                 5.4744
 IR Inten    --     54.9973                 2.1666                41.6704

                     61                     62                     63
                      A                      A                      A
 Frequencies --   2983.8686              3033.1793              3038.2426
 Red. masses --      1.0481                 1.0896                 1.0838
 Frc consts  --      5.4983                 5.9064                 5.8946
 IR Inten    --    106.2292                35.6843                25.3517

                     64                     65                     66
                      A                      A                      A
 Frequencies --   3074.4952              3078.1889              3096.9293
 Red. masses --      1.0860                 1.1004                 1.0968
 Frc consts  --      6.0481                 6.1433                 6.1979
 IR Inten    --     20.1918                22.3747                16.0102

                     67                     68                     69
                      A                      A                      A
 Frequencies --   3124.4429              3175.0337              3186.1568
 Red. masses --      1.0837                 1.0861                 1.0941
 Frc consts  --      6.2332                 6.4507                 6.5437
 IR Inten    --      3.0052                 1.2424                10.5001

 - Thermochemistry -
 -------------------
 Temperature   298.150 Kelvin.  Pressure   1.00000 Atm.
 Atom     1 has atomic number  6 and mass  12.00000

 Molecular mass:   232.01626 amu.
 Principal axes and moments of inertia in atomic units:
                           1         2         3
     Eigenvalues --  1606.683356387.257247480.72326
           X            0.99994  -0.00459  -0.01021
           Y            0.00457   0.99999  -0.00210
           Z            0.01022   0.00205   0.99995
 This molecule is an asymmetric top.
 Rotational symmetry number  1.
 Warning -- assumption of classical behavior for rotation
           may cause significant error
 Rotational temperatures (Kelvin)      0.05391     0.01356     0.01158
 Rotational constants (GHZ):           1.12327     0.28255     0.24125
 Zero-point vibrational energy     470774.1 (Joules/Mol)
                                  112.51771 (Kcal/Mol)
 Warning -- explicit consideration of  25 degrees of freedom as
           vibrations may cause significant error
 Vibrational temperatures:     31.63    52.61    80.02    95.05   112.19
          (Kelvin)            171.11   215.90   238.37   267.48   293.22
                              319.86   340.28   354.90   388.21   399.59
                              435.36   466.03   514.33   538.22   553.04
                              579.75   610.50   704.08   768.66   881.05
                              944.88   971.57   978.07  1046.04  1102.73
                             1160.64  1220.07  1270.14  1335.78  1399.90
                             1409.41  1413.47  1416.10  1443.35  1531.05
                             1589.35  1615.95  1752.53  1804.27  1811.06
                             1826.42  1836.55  1909.57  2024.67  2049.00
                             2103.89  2121.47  2145.95  2173.38  2200.45
                             2274.56  2346.99  3550.35  3783.09  4283.68
                             4293.12  4364.07  4371.35  4423.51  4428.83
                             4455.79  4495.38  4568.17  4584.17

 Zero-point correction=                           0.179308 (Hartree/Particle)
 Thermal correction to Energy=                    0.196039
 Thermal correction to Enthalpy=                  0.196983
 Thermal correction to Gibbs Free Energy=         0.133530
 Sum of electronic and zero-point Energies=          -1615.655417
 Sum of electronic and thermal Energies=             -1615.638687
 Sum of electronic and thermal Enthalpies=           -1615.637743
 Sum of electronic and thermal Free Energies=        -1615.701196

                     E (Thermal)             CV                S
                      KCal/Mol        Cal/Mol-Kelvin    Cal/Mol-Kelvin
 Total                  123.016             59.132            133.549
 Electronic               0.000              0.000              0.000
 Translational            0.889              2.981             42.227
 Rotational               0.889              2.981             32.707
 Vibrational            121.239             53.171             58.616
 Vibration     1          0.593              1.985              6.446
 Vibration     2          0.594              1.982              5.437
 Vibration     3          0.596              1.975              4.607
 Vibration     4          0.597              1.970              4.267
 Vibration     5          0.599              1.964              3.941
 Vibration     6          0.609              1.934              3.118
 Vibration     7          0.618              1.903              2.671
 Vibration     8          0.624              1.885              2.484
 Vibration     9          0.632              1.859              2.268
 Vibration    10          0.639              1.834              2.099
 Vibration    11          0.648              1.807              1.940
 Vibration    12          0.655              1.785              1.829
 Vibration    13          0.661              1.768              1.754
 Vibration    14          0.674              1.729              1.597
 Vibration    15          0.679              1.715              1.548
 Vibration    16          0.694              1.669              1.403
 Vibration    17          0.708              1.628              1.290
 Vibration    18          0.733              1.560              1.133
 Vibration    19          0.745              1.525              1.063
 Vibration    20          0.753              1.504              1.022
 Vibration    21          0.768              1.464              0.952
 Vibration    22          0.786              1.417              0.877
 Vibration    23          0.845              1.274              0.685
 Vibration    24          0.889              1.174              0.578
 Vibration    25          0.972              1.006              0.429

                           ! Non-Optimized Parameters !
 Normal termination of Gaussian 16 at Fri May 19 11:38:33 2023.
