 Gaussian 16, Revision A.03,
 Gaussian 16:  ES64L-G16RevA.03 25-Dec-2016

 -----------------------------
 # opt freq b3lyp/6-31g(2df,p)
 -----------------------------

 -------------------
 Title Card Required
 -------------------
 Symbolic Z-matrix:
 Charge =  0 Multiplicity = 1

 SCF Done:  E(RB3LYP) =  -1312.29330017     A.U. after   27 cycles
 SCF Done:  E(RB3LYP) =  -1312.33082863     A.U. after   17 cycles
 SCF Done:  E(RB3LYP) =  -1312.35011865     A.U. after   15 cycles
 SCF Done:  E(RB3LYP) =  -1312.35742223     A.U. after   15 cycles
 SCF Done:  E(RB3LYP) =  -1312.36079211     A.U. after   14 cycles
 SCF Done:  E(RB3LYP) =  -1312.36511764     A.U. after   14 cycles
 SCF Done:  E(RB3LYP) =  -1312.36902027     A.U. after   16 cycles
 SCF Done:  E(RB3LYP) =  -1312.37391782     A.U. after   14 cycles
 SCF Done:  E(RB3LYP) =  -1312.37852055     A.U. after   15 cycles
 SCF Done:  E(RB3LYP) =  -1312.38012317     A.U. after   13 cycles
 SCF Done:  E(RB3LYP) =  -1312.38723389     A.U. after   12 cycles
 SCF Done:  E(RB3LYP) =  -1312.38724743     A.U. after   12 cycles
 SCF Done:  E(RB3LYP) =  -1312.38725904     A.U. after   12 cycles
 SCF Done:  E(RB3LYP) =  -1312.38726327     A.U. after   11 cycles
 SCF Done:  E(RB3LYP) =  -1312.38726844     A.U. after   10 cycles
 SCF Done:  E(RB3LYP) =  -1312.38727080     A.U. after    9 cycles
 SCF Done:  E(RB3LYP) =  -1312.38727185     A.U. after    9 cycles
 SCF Done:  E(RB3LYP) =  -1312.38727198     A.U. after    8 cycles
 SCF Done:  E(RB3LYP) =  -1312.38727207     A.U. after    8 cycles
 Optimization completed.
    -- Stationary point found.
 Normal termination of Gaussian 16 at Sat May 20 15:46:38 2023.

 ----------------------------------------------------------------------
 #N Geom=AllCheck Guess=TCheck SCRF=Check GenChk RB3LYP/6-31G(2df,p) Fr
 eq
 ----------------------------------------------------------------------

 Structure from the checkpoint file:  "CCqCrC1dCNdCCdC[SH]1CqSrNdN.chk"
 -------------------
 Title Card Required
 -------------------
 Charge =  0 Multiplicity = 1

                         Standard orientation:
 ---------------------------------------------------------------------
 Center     Atomic      Atomic             Coordinates (Angstroms)
 Number     Number       Type             X           Y           Z
 ---------------------------------------------------------------------
      1          6           0       -0.059129    2.693651    0.796899
      2          6           0        1.167115    2.018828    0.162826
      3          6           0        2.416806    2.246155    1.040127
      4          6           0        1.027672    0.541220   -0.183338
      5          6           0        2.025460   -0.034974   -1.109499
      6          7           0        2.794830   -1.048663   -0.954854
      7          6           0        2.696175   -1.974684    0.069639
      8          6           0        1.562463   -2.486186    0.606241
      9          6           0        0.224301   -2.048157    0.265152
     10         16           0       -0.161510   -0.445967    0.364040
     11          6           0       -2.126471   -0.459974   -0.495224
     12         16           0       -3.347687   -0.673317    0.787238
     13          7           0       -2.172029    0.762918   -1.176585
     14          7           0       -1.376576    0.786870   -2.160569
     15          1           0        0.103929    3.775035    0.842193
     16          1           0       -0.221017    2.353832    1.826059
     17          1           0       -0.974065    2.514572    0.225854
     18          1           0        1.356793    2.523193   -0.796795
     19          1           0        2.285243    1.784448    2.024571
     20          1           0        2.593570    3.317616    1.184972
     21          1           0        3.309188    1.810768    0.582590
     22          1           0        2.226169    0.582884   -1.991190
     23          1           0        3.651979   -2.412151    0.345616
     24          1           0        1.668421   -3.340960    1.273402
     25          1           0       -0.640679   -2.696396    0.310493
     26          1           0       -0.568495    0.180717    1.564025
     27          1           0       -1.979444   -1.355938   -1.099042
     28          1           0       -3.566994    0.645177    0.957077
     29          1           0       -1.427366    1.742601   -2.543166
 ---------------------------------------------------------------------

 SCF Done:  E(RB3LYP) =  -1312.38727207     A.U. after    1 cycles

 The electronic state is 1-A.
 Alpha  occ. eigenvalues --  -89.00790 -88.89896 -14.38958 -14.37243 -14.32050
 Alpha  occ. eigenvalues --  -10.26342 -10.22837 -10.21516 -10.21472 -10.19529
 Alpha  occ. eigenvalues --  -10.18764 -10.18668 -10.18478 -10.18128  -8.05576
 Alpha  occ. eigenvalues --   -7.96477  -6.01861  -6.01785  -6.01724  -5.92922
 Alpha  occ. eigenvalues --   -5.92550  -5.92046  -1.03122  -0.92767  -0.88567
 Alpha  occ. eigenvalues --   -0.82310  -0.81015  -0.76717  -0.71902  -0.69964
 Alpha  occ. eigenvalues --   -0.68809  -0.67590  -0.60346  -0.59340  -0.56514
 Alpha  occ. eigenvalues --   -0.53865  -0.51161  -0.50394  -0.47873  -0.46840
 Alpha  occ. eigenvalues --   -0.45686  -0.45069  -0.44225  -0.44059  -0.41992
 Alpha  occ. eigenvalues --   -0.40395  -0.40232  -0.39225  -0.38437  -0.36705
 Alpha  occ. eigenvalues --   -0.36573  -0.35372  -0.34956  -0.34197  -0.33208
 Alpha  occ. eigenvalues --   -0.28696  -0.27561  -0.24712  -0.24102  -0.20753
 Alpha  occ. eigenvalues --   -0.17566
 Alpha virt. eigenvalues --   -0.07844  -0.04197   0.00310   0.01202   0.03095
 Alpha virt. eigenvalues --    0.05282   0.06919   0.07374   0.08433   0.09650
 Alpha virt. eigenvalues --    0.10835   0.11366   0.12543   0.13547   0.14670

 Mulliken charges:
               1
     1  C   -0.432475
     2  C   -0.063028
     3  C   -0.375705
     4  C    0.122629
     5  C   -0.068621
     6  N   -0.181369
     7  C   -0.014690
     8  C   -0.111458
     9  C   -0.276642
    10  S    0.226407
    11  C   -0.056216
    12  S   -0.241425
    13  N   -0.119136
    14  N   -0.311954
    15  H    0.119187
    16  H    0.120055
    17  H    0.138626
    18  H    0.094931
    19  H    0.118553
    20  H    0.112204
    21  H    0.131673
    22  H    0.103618
    23  H    0.097369
    24  H    0.091581
    25  H    0.115049
    26  H    0.072808
    27  H    0.159290
    28  H    0.182834
    29  H    0.245905
 Sum of Mulliken charges =  -0.00000

 Dipole moment (field-independent basis, Debye):
    X=             -1.2837    Y=              2.4548    Z=              1.8005  Tot=              3.3039
 Quadrupole moment (field-independent basis, Debye-Ang):
   XX=           -105.6624   YY=            -93.2875   ZZ=           -100.3653
   XY=              2.0557   XZ=              2.5460   YZ=             -3.8031

  Exact polarizability: 233.196  -8.327 172.661  -2.620 -13.260 132.421
 Approx polarizability: 448.161 -13.390 293.607 -11.557 -29.929 249.779

                      1                      2                      3
                      A                      A                      A
 Frequencies --     34.9284                45.8480                56.3634
 Red. masses --      5.2466                 4.9607                 3.4911
 Frc consts  --      0.0038                 0.0061                 0.0065
 IR Inten    --      0.6203                 3.2204                 2.3195

                      4                      5                      6
                      A                      A                      A
 Frequencies --     85.6516                99.4477               118.8795
 Red. masses --      4.4160                 5.2451                 6.2499
 Frc consts  --      0.0191                 0.0306                 0.0520
 IR Inten    --      2.2102                 2.7976                 2.6204

                      7                      8                      9
                      A                      A                      A
 Frequencies --    148.3857               195.4625               205.9568
 Red. masses --      5.4949                 2.5143                 1.6118
 Frc consts  --      0.0713                 0.0566                 0.0403
 IR Inten    --      0.7402                 4.4175                10.0511

                     10                     11                     12
                      A                      A                      A
 Frequencies --    218.2637               234.2368               252.3879
 Red. masses --      3.0941                 2.4138                 1.3600
 Frc consts  --      0.0868                 0.0780                 0.0510
 IR Inten    --      5.2451                 1.8847                 0.6963

                     13                     14                     15
                      A                      A                      A
 Frequencies --    279.5079               282.1850               298.6020
 Red. masses --      1.2192                 3.5079                 3.3816
 Frc consts  --      0.0561                 0.1646                 0.1776
 IR Inten    --      1.3260                 2.2297                22.7308

                     16                     17                     18
                      A                      A                      A
 Frequencies --    314.8335               328.5716               352.1295
 Red. masses --      3.5024                 3.4459                 4.0365
 Frc consts  --      0.2045                 0.2192                 0.2949
 IR Inten    --      1.4114                17.9708                 8.9491

                     19                     20                     21
                      A                      A                      A
 Frequencies --    371.0173               396.6744               437.2874
 Red. masses --      3.2360                 3.5539                 2.8211
 Frc consts  --      0.2624                 0.3295                 0.3178
 IR Inten    --      6.3947                30.0339                 9.4950

                     22                     23                     24
                      A                      A                      A
 Frequencies --    469.5644               481.9548               502.6140
 Red. masses --      3.1209                 5.8192                 1.6889
 Frc consts  --      0.4054                 0.7964                 0.2514
 IR Inten    --      7.1823                12.2673                17.2869

                     25                     26                     27
                      A                      A                      A
 Frequencies --    579.6605               592.0334               728.9360
 Red. masses --      3.9211                 3.0052                 3.3113
 Frc consts  --      0.7763                 0.6206                 1.0366
 IR Inten    --      4.1293                12.3811                24.6612

                     28                     29                     30
                      A                      A                      A
 Frequencies --    743.0520               758.6666               805.4924
 Red. masses --      2.4195                 1.9241                 1.3213
 Frc consts  --      0.7871                 0.6525                 0.5051
 IR Inten    --     16.7263                58.3126                 3.7978

                     31                     32                     33
                      A                      A                      A
 Frequencies --    857.4175               860.2012               881.1162
 Red. masses --      2.4194                 2.8379                 2.3607
 Frc consts  --      1.0479                 1.2372                 1.0798
 IR Inten    --     40.4289                39.9197                18.0187

                     34                     35                     36
                      A                      A                      A
 Frequencies --    900.9549               923.9066               934.8031
 Red. masses --      1.3173                 1.4429                 1.2226
 Frc consts  --      0.6300                 0.7257                 0.6295
 IR Inten    --     51.9766                21.9649                 4.4512

                     37                     38                     39
                      A                      A                      A
 Frequencies --    943.9725               952.4312               955.1485
 Red. masses --      1.4452                 1.5166                 1.3050
 Frc consts  --      0.7587                 0.8105                 0.7015
 IR Inten    --     33.5580                10.2428                20.8162

                     40                     41                     42
                      A                      A                      A
 Frequencies --    962.5873               975.9792               995.9981
 Red. masses --      1.4972                 2.7968                 1.7161
 Frc consts  --      0.8173                 1.5696                 1.0030
 IR Inten    --      0.9661                 3.3117                92.0279

                     43                     44                     45
                      A                      A                      A
 Frequencies --   1066.9646              1095.1180              1103.8981
 Red. masses --      1.6978                 2.1240                 1.9707
 Frc consts  --      1.1388                 1.5008                 1.4149
 IR Inten    --      2.1842                 1.6722                62.5067

                     46                     47                     48
                      A                      A                      A
 Frequencies --   1118.5547              1144.6106              1210.1474
 Red. masses --      2.0049                 2.0377                 2.0793
 Frc consts  --      1.4779                 1.5729                 1.7941
 IR Inten    --     10.9335                25.7398                10.9440

                     49                     50                     51
                      A                      A                      A
 Frequencies --   1248.1955              1261.5212              1287.0741
 Red. masses --      2.7928                 1.5186                 1.3524
 Frc consts  --      2.5636                 1.4239                 1.3199
 IR Inten    --     36.1130                29.2697                50.3475

                     52                     53                     54
                      A                      A                      A
 Frequencies --   1312.6897              1331.6357              1361.6921
 Red. masses --      1.5905                 1.3008                 1.4748
 Frc consts  --      1.6148                 1.3590                 1.6112
 IR Inten    --      0.1603                 3.9465                18.6419

                     55                     56                     57
                      A                      A                      A
 Frequencies --   1399.1494              1412.4375              1422.1469
 Red. masses --      1.2211                 1.2664                 1.2277
 Frc consts  --      1.4084                 1.4886                 1.4630
 IR Inten    --      7.0086                13.4378                 9.2549

                     58                     59                     60
                      A                      A                      A
 Frequencies --   1443.3642              1467.5964              1487.3713
 Red. masses --      1.5159                 2.1324                 1.0541
 Frc consts  --      1.8606                 2.7061                 1.3739
 IR Inten    --      8.2891                42.2008                 5.4745

                     61                     62                     63
                      A                      A                      A
 Frequencies --   1490.8336              1502.6180              1507.1603
 Red. masses --      1.0434                 1.4189                 1.4982
 Frc consts  --      1.3663                 1.8875                 2.0051
 IR Inten    --      3.2261                52.8095                64.3047

                     64                     65                     66
                      A                      A                      A
 Frequencies --   1515.4699              1586.1500              1644.7870
 Red. masses --      1.0491                 6.1335                 7.9872
 Frc consts  --      1.4195                 9.0918                12.7311
 IR Inten    --      6.8677                 1.0387                32.4369

                     67                     68                     69
                      A                      A                      A
 Frequencies --   2064.7500              2671.6541              2982.7280
 Red. masses --      1.0442                 1.0379                 1.0819
 Frc consts  --      2.6228                 4.3647                 5.6709
 IR Inten    --    362.1812                 0.9309                16.0418

                     70                     71                     72
                      A                      A                      A
 Frequencies --   3028.4931              3032.5186              3060.4336
 Red. masses --      1.0356                 1.0368                 1.0848
 Frc consts  --      5.5960                 5.6174                 5.9866
 IR Inten    --     20.4666                22.7164                35.5955

                     73                     74                     75
                      A                      A                      A
 Frequencies --   3092.4929              3100.0712              3115.5150
 Red. masses --      1.0998                 1.1012                 1.1007
 Frc consts  --      6.1968                 6.2354                 6.2950
 IR Inten    --     10.5183                52.3625                12.4012

                     76                     77                     78
                      A                      A                      A
 Frequencies --   3115.5352              3117.9493              3121.6825
 Red. masses --      1.0860                 1.1014                 1.0846
 Frc consts  --      6.2106                 6.3086                 6.2274
 IR Inten    --      0.9334                10.7554                21.9930

                     79                     80                     81
                      A                      A                      A
 Frequencies --   3163.6437              3209.3006              3313.1235
 Red. masses --      1.0909                 1.0865                 1.0747
 Frc consts  --      6.4330                 6.5931                 6.9505
 IR Inten    --     42.7428                 0.4040                 5.6671

 - Thermochemistry -
 -------------------
 Temperature   298.150 Kelvin.  Pressure   1.00000 Atm.
 Atom     1 has atomic number  6 and mass  12.00000

 Molecular mass:   229.07074 amu.
 Principal axes and moments of inertia in atomic units:
                           1         2         3
     Eigenvalues --  2500.355314073.998305194.09516
           X            0.99984   0.01411   0.01113
           Y           -0.01431   0.99973   0.01834
           Z           -0.01087  -0.01849   0.99977
 This molecule is an asymmetric top.
 Rotational symmetry number  1.
 Warning -- assumption of classical behavior for rotation
           may cause significant error
 Rotational temperatures (Kelvin)      0.03464     0.02126     0.01668
 Rotational constants (GHZ):           0.72179     0.44299     0.34746
 Zero-point vibrational energy     593193.4 (Joules/Mol)
                                  141.77662 (Kcal/Mol)
 Warning -- explicit consideration of  26 degrees of freedom as
           vibrations may cause significant error
 Vibrational temperatures:     50.25    65.96    81.09   123.23   143.08
          (Kelvin)            171.04   213.49   281.23   296.33   314.03
                              337.01   363.13   402.15   406.00   429.62
                              452.98   472.74   506.64   533.81   570.73
                              629.16   675.60   693.43   723.15   834.00
                              851.80  1048.78  1069.09  1091.55  1158.92
                             1233.63  1237.64  1267.73  1296.27  1329.30
                             1344.97  1358.17  1370.34  1374.25  1384.95
                             1404.22  1433.02  1535.12  1575.63  1588.26
                             1609.35  1646.84  1741.13  1795.87  1815.05
                             1851.81  1888.67  1915.93  1959.17  2013.06
                             2032.18  2046.15  2076.68  2111.54  2140.00
                             2144.98  2161.93  2168.47  2180.42  2282.12
                             2366.48  2970.71  3843.91  4291.48  4357.33
                             4363.12  4403.28  4449.41  4460.31  4482.53
                             4482.56  4486.03  4491.40  4551.78  4617.47
                             4766.85

 Zero-point correction=                           0.225935 (Hartree/Particle)
 Thermal correction to Energy=                    0.242440
 Thermal correction to Enthalpy=                  0.243384
 Thermal correction to Gibbs Free Energy=         0.181723
 Sum of electronic and zero-point Energies=          -1312.161337
 Sum of electronic and thermal Energies=             -1312.144832
 Sum of electronic and thermal Enthalpies=           -1312.143888
 Sum of electronic and thermal Free Energies=        -1312.205550

                     E (Thermal)             CV                S
                      KCal/Mol        Cal/Mol-Kelvin    Cal/Mol-Kelvin
 Total                  152.133             60.885            129.778
 Electronic               0.000              0.000              0.000
 Translational            0.889              2.981             42.189
 Rotational               0.889              2.981             32.337
 Vibrational            150.356             54.923             55.253
 Vibration     1          0.594              1.983              5.528
 Vibration     2          0.595              1.979              4.989
 Vibration     3          0.596              1.975              4.581
 Vibration     4          0.601              1.959              3.757
 Vibration     5          0.604              1.950              3.465
 Vibration     6          0.609              1.934              3.119
 Vibration     7          0.618              1.904              2.693
 Vibration     8          0.636              1.846              2.175
 Vibration     9          0.640              1.831              2.079
 Vibration    10          0.646              1.813              1.973
 Vibration    11          0.654              1.788              1.846
 Vibration    12          0.664              1.759              1.714
 Vibration    13          0.680              1.711              1.537
 Vibration    14          0.681              1.707              1.520
 Vibration    15          0.692              1.676              1.425
 Vibration    16          0.702              1.645              1.337
 Vibration    17          0.712              1.618              1.267
 Vibration    18          0.729              1.571              1.157
 Vibration    19          0.743              1.532              1.076
 Vibration    20          0.763              1.477              0.975
 Vibration    21          0.798              1.389              0.835
 Vibration    22          0.827              1.318              0.739
 Vibration    23          0.838              1.290              0.705
 Vibration    24          0.858              1.244              0.652
 Vibration    25          0.936              1.075              0.486
 Vibration    26          0.950              1.049              0.464

 Optimization completed.
    -- Stationary point found.
 Normal termination of Gaussian 16 at Sat May 20 17:55:19 2023.
