 Gaussian 16, Revision A.03,
 Gaussian 16:  ES64L-G16RevA.03 25-Dec-2016

 -----------------------------
 # opt freq b3lyp/6-31g(2df,p)
 -----------------------------

 -------------------
 Title Card Required
 -------------------
 Symbolic Z-matrix:
 Charge =  0 Multiplicity = 1

 SCF Done:  E(RB3LYP) =  -1634.23754686     A.U. after   28 cycles
 SCF Done:  E(RB3LYP) =  -1633.89821510     A.U. after   22 cycles
 SCF Done:  E(RB3LYP) =  -1634.33955889     A.U. after   20 cycles
 SCF Done:  E(RB3LYP) =  -1634.38885478     A.U. after   17 cycles
 SCF Done:  E(RB3LYP) =  -1634.43472666     A.U. after   18 cycles
 SCF Done:  E(RB3LYP) =  -1634.48277790     A.U. after   18 cycles
 SCF Done:  E(RB3LYP) =  -1634.48747044     A.U. after   19 cycles
 SCF Done:  E(RB3LYP) =  -1634.51983395     A.U. after   18 cycles
 SCF Done:  E(RB3LYP) =  -1634.56260216     A.U. after   17 cycles
 SCF Done:  E(RB3LYP) =  -1634.58354247     A.U. after   17 cycles
 SCF Done:  E(RB3LYP) =  -1634.79302328     A.U. after   11 cycles
 SCF Done:  E(RB3LYP) =  -1634.79304423     A.U. after   10 cycles
 SCF Done:  E(RB3LYP) =  -1634.79305264     A.U. after    9 cycles
 SCF Done:  E(RB3LYP) =  -1634.79305929     A.U. after   10 cycles
 SCF Done:  E(RB3LYP) =  -1634.79306157     A.U. after   10 cycles
 SCF Done:  E(RB3LYP) =  -1634.79306284     A.U. after    9 cycles
 SCF Done:  E(RB3LYP) =  -1634.79306347     A.U. after    8 cycles
 SCF Done:  E(RB3LYP) =  -1634.79306379     A.U. after    7 cycles
 SCF Done:  E(RB3LYP) =  -1634.79306386     A.U. after    7 cycles
 Optimization completed.
    -- Stationary point found.
 Normal termination of Gaussian 16 at Thu May 18 11:33:45 2023.

 ----------------------------------------------------------------------
 #N Geom=AllCheck Guess=TCheck SCRF=Check GenChk RB3LYP/6-31G(2df,p) Fr
 eq
 ----------------------------------------------------------------------

 Structure from the checkpoint file:  "CCqdOrC1dCCdCSCqCrdNSS1.chk"
 -------------------
 Title Card Required
 -------------------
 Charge =  0 Multiplicity = 1

                         Standard orientation:
 ---------------------------------------------------------------------
 Center     Atomic      Atomic             Coordinates (Angstroms)
 Number     Number       Type             X           Y           Z
 ---------------------------------------------------------------------
      1          6           0        3.764918    1.201201    0.668584
      2          6           0        3.203737   -0.138533    0.241535
      3          8           0        3.924294   -1.106978    0.131760
      4          6           0        1.711147   -0.268480   -0.049123
      5          6           0        1.323987   -1.444825   -0.593664
      6          6           0        0.046296   -1.919024   -1.079026
      7          6           0       -1.191651   -1.779655   -0.580588
      8         16           0       -1.610508   -1.073580    0.983060
      9          6           0       -2.686146    0.224383    0.293704
     10          6           0       -4.137156    0.150037    0.677838
     11          7           0       -2.278864    1.127690   -0.502671
     12         16           0       -0.779856    1.563016   -1.057363
     13         16           0        0.758800    1.175969    0.337805
     14          1           0        4.839379    1.092060    0.818451
     15          1           0        3.297287    1.544317    1.597779
     16          1           0        3.564758    1.967912   -0.085656
     17          1           0        2.164163   -2.107420   -0.796274
     18          1           0        0.119284   -2.527662   -1.981512
     19          1           0       -2.035489   -2.174033   -1.138169
     20          1           0       -4.574218   -0.799424    0.350900
     21          1           0       -4.687261    0.984109    0.238537
     22          1           0       -4.235974    0.185035    1.768964
 ---------------------------------------------------------------------

 SCF Done:  E(RB3LYP) =  -1634.79306386     A.U. after    1 cycles

 The electronic state is 1-A.
 Alpha  occ. eigenvalues --  -88.93352 -88.90353 -88.89729 -19.13466 -14.37126
 Alpha  occ. eigenvalues --  -10.28148 -10.27796 -10.23204 -10.23165 -10.21688
 Alpha  occ. eigenvalues --  -10.21202 -10.20538 -10.19024  -7.99069  -7.96537
 Alpha  occ. eigenvalues --   -7.95930  -5.95700  -5.95184  -5.94557  -5.93030
 Alpha  occ. eigenvalues --   -5.92621  -5.92391  -5.92113  -5.92074  -5.91509
 Alpha  occ. eigenvalues --   -1.04681  -0.95788  -0.84570  -0.82558  -0.78208
 Alpha  occ. eigenvalues --   -0.76147  -0.74199  -0.71534  -0.67506  -0.63374
 Alpha  occ. eigenvalues --   -0.56247  -0.53889  -0.50830  -0.50333  -0.47824
 Alpha  occ. eigenvalues --   -0.46346  -0.45207  -0.44918  -0.44358  -0.43622
 Alpha  occ. eigenvalues --   -0.41913  -0.40389  -0.40135  -0.38304  -0.37375
 Alpha  occ. eigenvalues --   -0.36652  -0.35123  -0.33962  -0.33331  -0.31162
 Alpha  occ. eigenvalues --   -0.28395  -0.25778  -0.24522  -0.23289  -0.22958
 Alpha virt. eigenvalues --   -0.08138  -0.05453  -0.02445  -0.00429   0.02635
 Alpha virt. eigenvalues --    0.04475   0.06253   0.07231   0.07665   0.08732
 Alpha virt. eigenvalues --    0.11026   0.11499   0.14482   0.15207   0.16095

 Mulliken charges:
               1
     1  C   -0.487649
     2  C    0.339850
     3  O   -0.293293
     4  C    0.029089
     5  C   -0.087487
     6  C   -0.090736
     7  C   -0.094330
     8  S   -0.130187
     9  C    0.248464
    10  C   -0.442619
    11  N   -0.176676
    12  S    0.026833
    13  S   -0.129373
    14  H    0.140536
    15  H    0.156866
    16  H    0.159261
    17  H    0.140568
    18  H    0.118689
    19  H    0.126132
    20  H    0.148004
    21  H    0.146685
    22  H    0.151376
 Sum of Mulliken charges =  -0.00000

 Dipole moment (field-independent basis, Debye):
    X=             -2.4032    Y=             -0.2411    Z=             -0.3155  Tot=              2.4358
 Quadrupole moment (field-independent basis, Debye-Ang):
   XX=            -93.8385   YY=            -97.8136   ZZ=            -94.7451
   XY=              8.8945   XZ=             -1.0725   YZ=              5.4284

  Exact polarizability: 221.166   4.019 145.113  -2.317   4.285 109.994
 Approx polarizability: 364.141   0.775 274.867   0.940   1.372 210.989

                      1                      2                      3
                      A                      A                      A
 Frequencies --     36.4839                40.3096                74.2623
 Red. masses --      4.4850                 5.2400                 5.7815
 Frc consts  --      0.0035                 0.0050                 0.0188
 IR Inten    --      1.3940                 3.3630                 0.2911

                      4                      5                      6
                      A                      A                      A
 Frequencies --    134.2829               137.2301               167.9412
 Red. masses --      6.8875                 7.3214                 5.3234
 Frc consts  --      0.0732                 0.0812                 0.0885
 IR Inten    --      0.3878                 1.9861                 2.8141

                      7                      8                      9
                      A                      A                      A
 Frequencies --    171.5265               178.0908               188.6746
 Red. masses --      1.1956                 1.0515                 5.9286
 Frc consts  --      0.0207                 0.0196                 0.1243
 IR Inten    --      0.7857                 0.2256                 2.1704

                     10                     11                     12
                      A                      A                      A
 Frequencies --    212.3355               264.3803               285.7211
 Red. masses --      3.8110                 7.4078                 5.9617
 Frc consts  --      0.1012                 0.3051                 0.2868
 IR Inten    --      0.9356                 1.5061                 4.1875

                     13                     14                     15
                      A                      A                      A
 Frequencies --    309.2612               359.0332               369.3013
 Red. masses --      3.3464                 6.2549                 4.2181
 Frc consts  --      0.1886                 0.4751                 0.3389
 IR Inten    --      3.1234                 1.7267                 1.1597

                     16                     17                     18
                      A                      A                      A
 Frequencies --    415.7691               443.4123               473.5648
 Red. masses --      6.0041                10.5942                 5.4031
 Frc consts  --      0.6115                 1.2273                 0.7139
 IR Inten    --      8.1192                 4.6360                 4.8701

                     19                     20                     21
                      A                      A                      A
 Frequencies --    511.2376               523.4916               537.8878
 Red. masses --      7.1223                 5.4376                 5.4421
 Frc consts  --      1.0968                 0.8780                 0.9277
 IR Inten    --      1.1410                 5.9466                22.2322

                     22                     23                     24
                      A                      A                      A
 Frequencies --    560.9532               613.4211               630.9282
 Red. masses --      5.3930                 2.7447                 4.3862
 Frc consts  --      0.9998                 0.6085                 1.0287
 IR Inten    --     10.2597                 6.1985                32.1781

                     25                     26                     27
                      A                      A                      A
 Frequencies --    690.3642               716.1529               762.6496
 Red. masses --      5.1447                 4.9596                 1.4936
 Frc consts  --      1.4447                 1.4987                 0.5118
 IR Inten    --      2.8879                74.5066                31.2095

                     28                     29                     30
                      A                      A                      A
 Frequencies --    793.5969               928.7256               948.5261
 Red. masses --      4.2729                 2.3889                 2.2518
 Frc consts  --      1.5855                 1.2140                 1.1936
 IR Inten    --      6.9787                 5.9595                13.4028

                     31                     32                     33
                      A                      A                      A
 Frequencies --    960.1926               985.5212              1030.0630
 Red. masses --      1.6452                 1.5431                 2.3551
 Frc consts  --      0.8937                 0.8831                 1.4723
 IR Inten    --     44.9793                10.5591                13.8923

                     34                     35                     36
                      A                      A                      A
 Frequencies --   1038.7853              1043.7588              1052.5392
 Red. masses --      1.4734                 1.8794                 2.4579
 Frc consts  --      0.9368                 1.2063                 1.6043
 IR Inten    --      2.9248                 2.0644                 9.2989

                     37                     38                     39
                      A                      A                      A
 Frequencies --   1118.6113              1206.6572              1255.1557
 Red. masses --      2.6067                 2.8125                 1.1340
 Frc consts  --      1.9217                 2.4128                 1.0526
 IR Inten    --     72.6927               227.9731                24.6909

                     40                     41                     42
                      A                      A                      A
 Frequencies --   1337.3705              1383.6069              1387.7148
 Red. masses --      1.3318                 1.3688                 1.3313
 Frc consts  --      1.4034                 1.5439                 1.5105
 IR Inten    --     38.0302                13.6898                39.6104

                     43                     44                     45
                      A                      A                      A
 Frequencies --   1398.7865              1455.6819              1464.5881
 Red. masses --      1.2533                 1.0535                 1.0643
 Frc consts  --      1.4448                 1.3153                 1.3451
 IR Inten    --      2.0182                19.5239                 9.4195

                     46                     47                     48
                      A                      A                      A
 Frequencies --   1469.9960              1472.1336              1612.3366
 Red. masses --      1.0449                 1.0473                 7.1022
 Frc consts  --      1.3303                 1.3373                10.8782
 IR Inten    --      8.7660                 9.5977                81.5769

                     49                     50                     51
                      A                      A                      A
 Frequencies --   1645.9090              1650.8601              1778.4033
 Red. masses --      9.0874                 6.3187                10.7494
 Frc consts  --     14.5044                10.1461                20.0307
 IR Inten    --     27.8489                 3.4814               144.9819

                     52                     53                     54
                      A                      A                      A
 Frequencies --   3033.8757              3044.7339              3092.5604
 Red. masses --      1.0358                 1.0370                 1.0990
 Frc consts  --      5.6171                 5.6639                 6.1928
 IR Inten    --      9.2631                 1.5615                 5.9541

                     55                     56                     57
                      A                      A                      A
 Frequencies --   3109.3726              3113.8883              3142.1556
 Red. masses --      1.0969                 1.0832                 1.1022
 Frc consts  --      6.2485                 6.1884                 6.4116
 IR Inten    --      3.6484                 7.2319                 8.2312

                     58                     59                     60
                      A                      A                      A
 Frequencies --   3143.8611              3155.1256              3170.4588
 Red. masses --      1.0843                 1.1032                 1.0924
 Frc consts  --      6.3143                 6.4703                 6.4697
 IR Inten    --      1.9654                16.8099                 8.9786

 - Thermochemistry -
 -------------------
 Temperature   298.150 Kelvin.  Pressure   1.00000 Atm.
 Atom     1 has atomic number  6 and mass  12.00000

 Molecular mass:   230.98463 amu.
 Principal axes and moments of inertia in atomic units:
                           1         2         3
     Eigenvalues --  1675.402514774.327075586.95582
           X            0.99985   0.01748  -0.00011
           Y           -0.01744   0.99835   0.05480
           Z            0.00106  -0.05479   0.99850
 This molecule is an asymmetric top.
 Rotational symmetry number  1.
 Warning -- assumption of classical behavior for rotation
           may cause significant error
 Rotational temperatures (Kelvin)      0.05170     0.01814     0.01550
 Rotational constants (GHZ):           1.07720     0.37801     0.32303
 Zero-point vibrational energy     408131.3 (Joules/Mol)
                                   97.54571 (Kcal/Mol)
 Warning -- explicit consideration of  23 degrees of freedom as
           vibrations may cause significant error
 Vibrational temperatures:     52.49    58.00   106.85   193.20   197.44
          (Kelvin)            241.63   246.79   256.23   271.46   305.50
                              380.38   411.09   444.96   516.57   531.34
                              598.20   637.97   681.35   735.56   753.19
                              773.90   807.09   882.58   907.77   993.28
                             1030.38  1097.28  1141.81  1336.23  1364.72
                             1381.50  1417.95  1482.03  1494.58  1501.74
                             1514.37  1609.43  1736.11  1805.89  1924.18
                             1990.70  1996.61  2012.54  2094.40  2107.22
                             2115.00  2118.07  2319.79  2368.10  2375.22
                             2558.73  4365.07  4380.69  4449.50  4473.69
                             4480.19  4520.86  4523.31  4539.52  4561.58

 Zero-point correction=                           0.155449 (Hartree/Particle)
 Thermal correction to Energy=                    0.169784
 Thermal correction to Enthalpy=                  0.170728
 Thermal correction to Gibbs Free Energy=         0.113361
 Sum of electronic and zero-point Energies=          -1634.637615
 Sum of electronic and thermal Energies=             -1634.623280
 Sum of electronic and thermal Enthalpies=           -1634.622336
 Sum of electronic and thermal Free Energies=        -1634.679703

                     E (Thermal)             CV                S
                      KCal/Mol        Cal/Mol-Kelvin    Cal/Mol-Kelvin
 Total                  106.541             51.689            120.740
 Electronic               0.000              0.000              0.000
 Translational            0.889              2.981             42.213
 Rotational               0.889              2.981             32.169
 Vibrational            104.764             45.728             46.357
 Vibration     1          0.594              1.982              5.441
 Vibration     2          0.594              1.981              5.244
 Vibration     3          0.599              1.966              4.037
 Vibration     4          0.613              1.919              2.884
 Vibration     5          0.614              1.916              2.842
 Vibration     6          0.625              1.882              2.458
 Vibration     7          0.626              1.878              2.419
 Vibration     8          0.629              1.869              2.348
 Vibration     9          0.633              1.855              2.241
 Vibration    10          0.643              1.822              2.024
 Vibration    11          0.671              1.738              1.633
 Vibration    12          0.684              1.700              1.499
 Vibration    13          0.699              1.656              1.366
 Vibration    14          0.734              1.557              1.126
 Vibration    15          0.742              1.535              1.083
 Vibration    16          0.779              1.436              0.906
 Vibration    17          0.803              1.375              0.816
 Vibration    18          0.830              1.309              0.728
 Vibration    19          0.866              1.225              0.631
 Vibration    20          0.878              1.198              0.602
 Vibration    21          0.893              1.166              0.570
 Vibration    22          0.917              1.116              0.522
 Vibration    23          0.973              1.003              0.427

 Optimization completed.
    -- Stationary point found.
 Normal termination of Gaussian 16 at Thu May 18 12:36:59 2023.
