 Gaussian 16, Revision A.03,
 Gaussian 16:  ES64L-G16RevA.03 25-Dec-2016

 -----------------------------
 # opt freq b3lyp/6-31g(2df,p)
 -----------------------------

 -------------------
 Title Card Required
 -------------------
 Symbolic Z-matrix:
 Charge =  0 Multiplicity = 1

 SCF Done:  E(RB3LYP) =  -881.705803252     A.U. after   17 cycles
 SCF Done:  E(RB3LYP) =  -881.758262526     A.U. after   15 cycles
 SCF Done:  E(RB3LYP) =  -881.796969954     A.U. after   16 cycles
 SCF Done:  E(RB3LYP) =  -881.824729159     A.U. after   15 cycles
 SCF Done:  E(RB3LYP) =  -881.854049107     A.U. after   16 cycles
 SCF Done:  E(RB3LYP) =  -881.868564577     A.U. after   15 cycles
 SCF Done:  E(RB3LYP) =  -881.876056442     A.U. after   15 cycles
 SCF Done:  E(RB3LYP) =  -881.881494627     A.U. after   15 cycles
 SCF Done:  E(RB3LYP) =  -881.883923185     A.U. after   14 cycles
 SCF Done:  E(RB3LYP) =  -881.884877099     A.U. after   14 cycles
 SCF Done:  E(RB3LYP) =  -881.885462432     A.U. after   13 cycles
 SCF Done:  E(RB3LYP) =  -881.885624917     A.U. after   12 cycles
 SCF Done:  E(RB3LYP) =  -881.885681275     A.U. after   12 cycles
 SCF Done:  E(RB3LYP) =  -881.885694888     A.U. after   10 cycles
 SCF Done:  E(RB3LYP) =  -881.885699509     A.U. after    9 cycles
 SCF Done:  E(RB3LYP) =  -881.885701517     A.U. after    9 cycles
 SCF Done:  E(RB3LYP) =  -881.885702319     A.U. after    9 cycles
 SCF Done:  E(RB3LYP) =  -881.885702596     A.U. after    8 cycles
 Optimization completed.
    -- Stationary point found.
 Normal termination of Gaussian 16 at Thu May 18 03:09:28 2023.

 ----------------------------------------------------------------------
 #N Geom=AllCheck Guess=TCheck SCRF=Check GenChk RB3LYP/6-31G(2df,p) Fr
 eq
 ----------------------------------------------------------------------

 Structure from the checkpoint file:  "CCqOrC1dNC2dNNCdC3NdNNdCqOrC2dC3N1.chk"
 -------------------
 Title Card Required
 -------------------
 Charge =  0 Multiplicity = 1

                         Standard orientation:
 ---------------------------------------------------------------------
 Center     Atomic      Atomic             Coordinates (Angstroms)
 Number     Number       Type             X           Y           Z
 ---------------------------------------------------------------------
      1          6           0        4.164776    0.307844   -0.997412
      2          6           0        3.462511    0.036146    0.337037
      3          8           0        3.658506    1.097586    1.262680
      4          6           0        1.989373   -0.268324    0.184950
      5          7           0        1.437257   -1.324216    0.677976
      6          6           0        0.063801   -1.358548    0.493786
      7          7           0       -0.419594   -2.285970   -0.323788
      8          7           0       -1.422046   -1.911896   -1.154038
      9          6           0       -1.823566   -0.680061   -1.592077
     10          6           0       -1.283133    0.552409   -1.260088
     11          7           0       -2.019971    1.754716   -1.330779
     12          7           0       -2.569265    2.082083   -0.206285
     13          7           0       -2.695118    1.250997    0.842815
     14          6           0       -1.978667    0.182079    1.166765
     15          8           0       -2.546612   -0.640502    2.062788
     16          6           0       -0.639844   -0.115141    0.797810
     17          6           0       -0.154230    0.548152   -0.333297
     18          7           0        1.194640    0.662379   -0.523566
     19          1           0        5.227983    0.479099   -0.814195
     20          1           0        3.772180    1.207450   -1.488128
     21          1           0        4.058084   -0.537612   -1.684258
     22          1           0        3.900942   -0.846114    0.808764
     23          1           0        3.214212    1.882560    0.922084
     24          1           0       -1.844150   -2.708944   -1.605088
     25          1           0       -2.687352   -0.714962   -2.245975
     26          1           0       -3.423751   -0.267880    2.243311
     27          1           0        1.539248    1.025743   -1.401451
 ---------------------------------------------------------------------

 SCF Done:  E(RB3LYP) =  -881.885702596     A.U. after    1 cycles

 The electronic state is 1-A.
 Alpha  occ. eigenvalues --  -19.18893 -19.15673 -14.43448 -14.40962 -14.40197
 Alpha  occ. eigenvalues --  -14.37161 -14.35890 -14.35123 -14.34152 -10.29898
 Alpha  occ. eigenvalues --  -10.28563 -10.27985 -10.27250 -10.26261 -10.24938
 Alpha  occ. eigenvalues --  -10.24080 -10.20756 -10.20461  -1.09408  -1.05778
 Alpha  occ. eigenvalues --   -1.04251  -1.03947  -1.01779  -0.93353  -0.88808
 Alpha  occ. eigenvalues --   -0.87254  -0.85239  -0.78395  -0.74502  -0.72403
 Alpha  occ. eigenvalues --   -0.69504  -0.68762  -0.63343  -0.62587  -0.60661
 Alpha  occ. eigenvalues --   -0.58727  -0.56406  -0.54866  -0.54194  -0.52994
 Alpha  occ. eigenvalues --   -0.50775  -0.48274  -0.46922  -0.45978  -0.45759
 Alpha  occ. eigenvalues --   -0.44432  -0.43305  -0.41999  -0.41765  -0.39676
 Alpha  occ. eigenvalues --   -0.39408  -0.39047  -0.37901  -0.35883  -0.34293
 Alpha  occ. eigenvalues --   -0.32583  -0.30626  -0.29053  -0.28964  -0.28105
 Alpha  occ. eigenvalues --   -0.25042  -0.24448  -0.22111  -0.21535
 Alpha virt. eigenvalues --   -0.07969  -0.04258  -0.01845  -0.01151   0.01311
 Alpha virt. eigenvalues --    0.04261   0.05314   0.06249   0.07980   0.08979
 Alpha virt. eigenvalues --    0.11378   0.13662   0.14030   0.15226   0.15944

 Mulliken charges:
               1
     1  C   -0.431364
     2  C    0.047882
     3  O   -0.419909
     4  C    0.329099
     5  N   -0.262430
     6  C    0.216494
     7  N   -0.247334
     8  N   -0.190412
     9  C   -0.032995
    10  C    0.028036
    11  N   -0.218347
    12  N   -0.083561
    13  N   -0.321637
    14  C    0.403156
    15  O   -0.394374
    16  C   -0.096088
    17  C    0.297023
    18  N   -0.430459
    19  H    0.146239
    20  H    0.108215
    21  H    0.135588
    22  H    0.130941
    23  H    0.286296
    24  H    0.282784
    25  H    0.140034
    26  H    0.303950
    27  H    0.273173
 Sum of Mulliken charges =   0.00000

 Dipole moment (field-independent basis, Debye):
    X=              1.6976    Y=             -1.8754    Z=             -3.4442  Tot=              4.2733
 Quadrupole moment (field-independent basis, Debye-Ang):
   XX=            -95.4037   YY=           -109.2283   ZZ=            -99.9871
   XY=             18.1463   XZ=             -7.7652   YZ=              6.1056

  Exact polarizability: 181.685  -6.276 140.787   2.079  -3.068 125.854
 Approx polarizability: 274.472 -18.289 313.987   9.707 -27.803 266.902

                      1                      2                      3
                      A                      A                      A
 Frequencies --     42.1411                69.0554               109.3001
 Red. masses --      3.8902                 5.3014                 6.8321
 Frc consts  --      0.0041                 0.0149                 0.0481
 IR Inten    --      0.8798                 0.3566                 3.1522

                      4                      5                      6
                      A                      A                      A
 Frequencies --    119.3970               155.3117               181.0297
 Red. masses --      5.9441                 5.6077                 7.9143
 Frc consts  --      0.0499                 0.0797                 0.1528
 IR Inten    --      1.4522                 1.6086                 3.7909

                      7                      8                      9
                      A                      A                      A
 Frequencies --    210.1502               231.7422               258.5469
 Red. masses --      3.5016                 4.1260                 1.1951
 Frc consts  --      0.0911                 0.1306                 0.0471
 IR Inten    --      0.3901                 5.3615                 0.7798

                     10                     11                     12
                      A                      A                      A
 Frequencies --    268.9297               274.4139               302.8678
 Red. masses --      3.4484                 1.6697                 4.3132
 Frc consts  --      0.1469                 0.0741                 0.2331
 IR Inten    --     22.7892               106.7548                20.4760

                     13                     14                     15
                      A                      A                      A
 Frequencies --    345.3019               377.2566               394.9010
 Red. masses --      6.0843                 4.3752                 9.5524
 Frc consts  --      0.4274                 0.3669                 0.8777
 IR Inten    --     16.3595                 2.3868                 4.1912

                     16                     17                     18
                      A                      A                      A
 Frequencies --    432.6253               463.5888               471.5786
 Red. masses --      5.7680                 6.2993                 3.5849
 Frc consts  --      0.6361                 0.7976                 0.4697
 IR Inten    --     24.0276                 0.2410                 7.4572

                     19                     20                     21
                      A                      A                      A
 Frequencies --    492.9540               519.8864               538.5579
 Red. masses --      5.3172                 4.8725                 1.8782
 Frc consts  --      0.7613                 0.7759                 0.3210
 IR Inten    --      4.2354                27.4217                39.1075

                     22                     23                     24
                      A                      A                      A
 Frequencies --    559.4476               575.3451               595.7871
 Red. masses --      3.5311                 2.0657                 2.4790
 Frc consts  --      0.6511                 0.4029                 0.5185
 IR Inten    --     22.2220                21.1714                21.7675

                     25                     26                     27
                      A                      A                      A
 Frequencies --    629.1696               640.6688               674.6082
 Red. masses --      1.6736                 3.4158                 3.6298
 Frc consts  --      0.3903                 0.8261                 0.9733
 IR Inten    --     47.9192                27.8682                17.4737

                     28                     29                     30
                      A                      A                      A
 Frequencies --    682.8915               697.6962               720.4708
 Red. masses --      6.3550                 8.3003                 4.3560
 Frc consts  --      1.7461                 2.3806                 1.3322
 IR Inten    --      2.2122                14.6274                 8.3829

                     31                     32                     33
                      A                      A                      A
 Frequencies --    729.6327               763.1204               817.7845
 Red. masses --      6.5080                 6.8149                 1.6390
 Frc consts  --      2.0413                 2.3383                 0.6458
 IR Inten    --     39.9126                 1.0664                18.7936

                     34                     35                     36
                      A                      A                      A
 Frequencies --    837.9417               865.2337               892.7012
 Red. masses --      5.7343                 5.9322                 3.7834
 Frc consts  --      2.3722                 2.6166                 1.7764
 IR Inten    --      6.4416                17.7559                22.7604

                     37                     38                     39
                      A                      A                      A
 Frequencies --    917.8520               951.6060               985.4862
 Red. masses --      3.7313                 5.0417                 4.0747
 Frc consts  --      1.8521                 2.6899                 2.3316
 IR Inten    --     19.8167               102.8177                56.4836

                     40                     41                     42
                      A                      A                      A
 Frequencies --   1014.2788              1027.4513              1078.6499
 Red. masses --      1.8082                 4.1717                 1.7874
 Frc consts  --      1.0960                 2.5947                 1.2252
 IR Inten    --     75.4399                39.4123                82.6359

                     43                     44                     45
                      A                      A                      A
 Frequencies --   1094.3648              1138.7402              1150.3123
 Red. masses --      3.7855                 3.9449                 6.3943
 Frc consts  --      2.6712                 3.0139                 4.9851
 IR Inten    --     72.4280                44.2404                19.6953

                     46                     47                     48
                      A                      A                      A
 Frequencies --   1190.3689              1225.4446              1241.2585
 Red. masses --      3.3652                 4.7601                 3.5596
 Frc consts  --      2.8095                 4.2117                 3.2313
 IR Inten    --     10.7418                26.5936                 2.6264

                     49                     50                     51
                      A                      A                      A
 Frequencies --   1266.4372              1279.3859              1297.9264
 Red. masses --      4.8267                 2.1271                 1.8007
 Frc consts  --      4.5611                 2.0513                 1.7872
 IR Inten    --    125.7843                76.9843                21.5215

                     52                     53                     54
                      A                      A                      A
 Frequencies --   1302.7276              1340.8925              1349.6060
 Red. masses --      2.3475                 2.5105                 1.7915
 Frc consts  --      2.3473                 2.6595                 1.9226
 IR Inten    --      6.1335                33.4998                41.8907

                     55                     56                     57
                      A                      A                      A
 Frequencies --   1401.1106              1406.1424              1416.1669
 Red. masses --      1.4870                 2.7458                 1.2164
 Frc consts  --      1.7199                 3.1987                 1.4373
 IR Inten    --     82.7261               111.3124                58.6587

                     58                     59                     60
                      A                      A                      A
 Frequencies --   1440.1858              1465.6381              1486.0795
 Red. masses --      5.2858                 3.3573                 2.6019
 Frc consts  --      6.4595                 4.2491                 3.3856
 IR Inten    --     30.1025               127.8354                87.9661

                     61                     62                     63
                      A                      A                      A
 Frequencies --   1488.0890              1504.1044              1509.7243
 Red. masses --      1.1584                 1.1482                 2.5466
 Frc consts  --      1.5113                 1.5305                 3.4199
 IR Inten    --     22.7640                17.6866                49.1494

                     64                     65                     66
                      A                      A                      A
 Frequencies --   1556.3146              1580.4939              1633.4695
 Red. masses --      2.8414                 2.5735                 8.2943
 Frc consts  --      4.0548                 3.7876                13.0393
 IR Inten    --    159.1880                42.9606                49.2554

                     67                     68                     69
                      A                      A                      A
 Frequencies --   3025.4425              3089.0252              3108.4664
 Red. masses --      1.0414                 1.0899                 1.0913
 Frc consts  --      5.6164                 6.1277                 6.2127
 IR Inten    --     12.9520                 5.2717                21.1945

                     70                     71                     72
                      A                      A                      A
 Frequencies --   3130.0303              3201.2468              3598.9148
 Red. masses --      1.1011                 1.0890                 1.0764
 Frc consts  --      6.3557                 6.5751                 8.2142
 IR Inten    --     13.7085                 0.7717                42.1099

                     73                     74                     75
                      A                      A                      A
 Frequencies --   3624.3137              3730.5941              3797.6572
 Red. masses --      1.0780                 1.0635                 1.0661
 Frc consts  --      8.3430                 8.7208                 9.0586
 IR Inten    --     89.1161                89.2194                15.8229

 - Thermochemistry -
 -------------------
 Temperature   298.150 Kelvin.  Pressure   1.00000 Atm.
 Atom     1 has atomic number  6 and mass  12.00000

 Molecular mass:   247.08177 amu.
 Principal axes and moments of inertia in atomic units:
                           1         2         3
     Eigenvalues --  2255.655175504.295245814.90968
           X            0.99976   0.01912  -0.01099
           Y           -0.01867   0.99903   0.03990
           Z            0.01175  -0.03969   0.99914
 This molecule is an asymmetric top.
 Rotational symmetry number  1.
 Warning -- assumption of classical behavior for rotation
           may cause significant error
 Rotational temperatures (Kelvin)      0.03840     0.01574     0.01490
 Rotational constants (GHZ):           0.80010     0.32788     0.31036
 Zero-point vibrational energy     514322.7 (Joules/Mol)
                                  122.92607 (Kcal/Mol)
 Warning -- explicit consideration of  24 degrees of freedom as
           vibrations may cause significant error
 Vibrational temperatures:     60.63    99.36   157.26   171.79   223.46
          (Kelvin)            260.46   302.36   333.43   371.99   386.93
                              394.82   435.76   496.81   542.79   568.17
                              622.45   667.00   678.50   709.25   748.00
                              774.86   804.92   827.79   857.20   905.23
                              921.78   970.61   982.53  1003.83  1036.60
                             1049.78  1097.96  1176.61  1205.61  1244.88
                             1284.40  1320.58  1369.15  1417.89  1459.32
                             1478.27  1551.94  1574.55  1638.39  1655.04
                             1712.68  1763.14  1785.89  1822.12  1840.75
                             1867.43  1874.33  1929.25  1941.78  2015.89
                             2023.13  2037.55  2072.11  2108.73  2138.14
                             2141.03  2164.07  2172.16  2239.19  2273.98
                             2350.20  4352.94  4444.42  4472.39  4503.42
                             4605.88  5178.04  5214.58  5367.49  5463.98

 Zero-point correction=                           0.195895 (Hartree/Particle)
 Thermal correction to Energy=                    0.210491
 Thermal correction to Enthalpy=                  0.211436
 Thermal correction to Gibbs Free Energy=         0.154818
 Sum of electronic and zero-point Energies=           -881.689807
 Sum of electronic and thermal Energies=              -881.675211
 Sum of electronic and thermal Enthalpies=            -881.674267
 Sum of electronic and thermal Free Energies=         -881.730885

                     E (Thermal)             CV                S
                      KCal/Mol        Cal/Mol-Kelvin    Cal/Mol-Kelvin
 Total                  132.085             58.075            119.163
 Electronic               0.000              0.000              0.000
 Translational            0.889              2.981             42.414
 Rotational               0.889              2.981             32.646
 Vibrational            130.308             52.113             44.103
 Vibration     1          0.595              1.980              5.156
 Vibration     2          0.598              1.969              4.180
 Vibration     3          0.606              1.942              3.281
 Vibration     4          0.609              1.933              3.110
 Vibration     5          0.620              1.897              2.606
 Vibration     6          0.630              1.866              2.318
 Vibration     7          0.642              1.825              2.042
 Vibration     8          0.653              1.792              1.865
 Vibration     9          0.667              1.748              1.672
 Vibration    10          0.673              1.730              1.603
 Vibration    11          0.677              1.721              1.568
 Vibration    12          0.694              1.668              1.401
 Vibration    13          0.724              1.585              1.188
 Vibration    14          0.748              1.519              1.050
 Vibration    15          0.762              1.481              0.982
 Vibration    16          0.794              1.399              0.850
 Vibration    17          0.821              1.331              0.756
 Vibration    18          0.829              1.313              0.733
 Vibration    19          0.849              1.266              0.676
 Vibration    20          0.875              1.206              0.610
 Vibration    21          0.894              1.165              0.568
 Vibration    22          0.915              1.119              0.525
 Vibration    23          0.932              1.085              0.494
 Vibration    24          0.954              1.041              0.457

                           ! Non-Optimized Parameters !
 Normal termination of Gaussian 16 at Thu May 18 06:50:11 2023.
