 Gaussian 16, Revision A.03,
 Gaussian 16:  ES64L-G16RevA.03 25-Dec-2016

 -----------------------------
 # opt freq b3lyp/6-31g(2df,p)
 -----------------------------

 -------------------
 Title Card Required
 -------------------
 Symbolic Z-matrix:
 Charge =  0 Multiplicity = 1

 SCF Done:  E(RB3LYP) =  -1904.56976300     A.U. after   21 cycles
 SCF Done:  E(RB3LYP) =  -1904.61273137     A.U. after   15 cycles
 SCF Done:  E(RB3LYP) =  -1904.65211601     A.U. after   14 cycles
 SCF Done:  E(RB3LYP) =  -1904.66036717     A.U. after   13 cycles
 SCF Done:  E(RB3LYP) =  -1904.66449455     A.U. after   13 cycles
 SCF Done:  E(RB3LYP) =  -1904.66519514     A.U. after   12 cycles
 SCF Done:  E(RB3LYP) =  -1904.66547594     A.U. after   12 cycles
 SCF Done:  E(RB3LYP) =  -1904.66553789     A.U. after   12 cycles
 SCF Done:  E(RB3LYP) =  -1904.66557336     A.U. after   10 cycles
 SCF Done:  E(RB3LYP) =  -1904.66558862     A.U. after   10 cycles
 SCF Done:  E(RB3LYP) =  -1904.66559126     A.U. after    8 cycles
 SCF Done:  E(RB3LYP) =  -1904.66559196     A.U. after    8 cycles
 SCF Done:  E(RB3LYP) =  -1904.66559216     A.U. after    7 cycles
 Optimization completed.
    -- Stationary point found.
 Normal termination of Gaussian 16 at Tue May 16 02:34:31 2023.

 ----------------------------------------------------------------------
 #N Geom=AllCheck Guess=TCheck SCRF=Check GenChk RB3LYP/6-31G(2df,p) Fr
 eq
 ----------------------------------------------------------------------

 Structure from the checkpoint file:  "CCSC1d[SH]C2d[SH]CqdC1SrCC2.chk"
 -------------------
 Title Card Required
 -------------------
 Charge =  0 Multiplicity = 1

                         Standard orientation:
 ---------------------------------------------------------------------
 Center     Atomic      Atomic             Coordinates (Angstroms)
 Number     Number       Type             X           Y           Z
 ---------------------------------------------------------------------
      1          6           0       -4.508675   -0.561690    0.530031
      2          6           0       -3.044637   -0.170438    0.714839
      3         16           0       -2.126579   -0.475092   -0.863270
      4          6           0       -0.440890   -0.208931   -0.474042
      5         16           0        0.373670   -1.673912    0.307051
      6          6           0        2.113412   -1.470905    0.409552
      7         16           0        2.330832   -0.439952   -1.121151
      8          6           0        1.708887    1.031074   -0.359688
      9          6           0        0.273015    0.966731   -0.345663
     10         16           0       -0.606265    2.477655    0.014406
     11          6           0        2.413672    1.057773    0.992594
     12          6           0        2.455428   -0.447759    1.524594
     13          1           0       -5.066885   -0.372418    1.452504
     14          1           0       -4.608509   -1.622730    0.282883
     15          1           0       -4.976286    0.018941   -0.270966
     16          1           0       -2.574007   -0.762985    1.503686
     17          1           0       -2.950130    0.887875    0.969349
     18          1           0        0.262489   -2.553864   -0.717461
     19          1           0        3.654352   -0.189644   -0.980236
     20          1           0        0.346076    3.303720   -0.458400
     21          1           0        1.875346    1.707710    1.686435
     22          1           0        3.438396    1.438873    0.915344
     23          1           0        1.772137   -0.577685    2.370783
     24          1           0        3.459224   -0.672104    1.900212
 ---------------------------------------------------------------------

 SCF Done:  E(RB3LYP) =  -1904.66559216     A.U. after    1 cycles

 The electronic state is 1-A.
 Alpha  occ. eigenvalues --  -88.96121 -88.94928 -88.87839 -88.87394 -10.23528
 Alpha  occ. eigenvalues --  -10.21887 -10.21085 -10.20267 -10.19498 -10.19256
 Alpha  occ. eigenvalues --  -10.18635 -10.18458  -8.01815  -8.00833  -7.94376
 Alpha  occ. eigenvalues --   -7.93534  -5.98102  -5.98052  -5.97602  -5.97130
 Alpha  occ. eigenvalues --   -5.97001  -5.96627  -5.90815  -5.90425  -5.90030
 Alpha  occ. eigenvalues --   -5.89992  -5.89662  -5.89105  -0.90236  -0.82506
 Alpha  occ. eigenvalues --   -0.81039  -0.78536  -0.74747  -0.72440  -0.69831
 Alpha  occ. eigenvalues --   -0.65827  -0.61829  -0.58267  -0.55676  -0.51362
 Alpha  occ. eigenvalues --   -0.47902  -0.47513  -0.46176  -0.45296  -0.44855
 Alpha  occ. eigenvalues --   -0.43407  -0.41465  -0.38942  -0.38528  -0.37269
 Alpha  occ. eigenvalues --   -0.36206  -0.36057  -0.35078  -0.34659  -0.32365
 Alpha  occ. eigenvalues --   -0.32075  -0.31564  -0.29278  -0.24092  -0.22571
 Alpha  occ. eigenvalues --   -0.21231  -0.17960
 Alpha virt. eigenvalues --   -0.02857  -0.00552   0.00622   0.01334   0.02856
 Alpha virt. eigenvalues --    0.05098   0.05471   0.06208   0.07555   0.08890
 Alpha virt. eigenvalues --    0.11096   0.11930   0.12908   0.13378   0.14624

 Mulliken charges:
               1
     1  C   -0.382387
     2  C   -0.189062
     3  S   -0.179850
     4  C   -0.077243
     5  S    0.034090
     6  C   -0.143702
     7  S    0.010465
     8  C   -0.139429
     9  C    0.186577
    10  S   -0.255895
    11  C   -0.261318
    12  C   -0.244597
    13  H    0.122181
    14  H    0.133094
    15  H    0.137588
    16  H    0.128202
    17  H    0.144381
    18  H    0.186458
    19  H    0.167468
    20  H    0.167623
    21  H    0.126059
    22  H    0.098321
    23  H    0.120726
    24  H    0.110248
 Sum of Mulliken charges =  -0.00000

 Dipole moment (field-independent basis, Debye):
    X=              1.0426    Y=             -0.4579    Z=              0.9920  Tot=              1.5103
 Quadrupole moment (field-independent basis, Debye-Ang):
   XX=            -92.8682   YY=           -102.0365   ZZ=           -102.2042
   XY=              4.0055   XZ=             -5.8352   YZ=              2.0770

  Exact polarizability: 218.662   0.350 159.711  -0.308   2.087 120.937
 Approx polarizability: 356.404   4.919 296.297  -1.800   2.249 217.867

                      1                      2                      3
                      A                      A                      A
 Frequencies --     42.5756                48.8373                69.8938
 Red. masses --      3.1834                 3.9913                 2.3560
 Frc consts  --      0.0034                 0.0056                 0.0068
 IR Inten    --      0.2791                 0.2660                 1.5024

                      4                      5                      6
                      A                      A                      A
 Frequencies --     96.9897               133.3799               168.4011
 Red. masses --      5.2649                 4.5218                11.6778
 Frc consts  --      0.0292                 0.0474                 0.1951
 IR Inten    --      3.9577                 0.7278                 0.7383

                      7                      8                      9
                      A                      A                      A
 Frequencies --    200.2596               228.9084               238.9099
 Red. masses --      2.8371                 1.7111                 2.0086
 Frc consts  --      0.0670                 0.0528                 0.0675
 IR Inten    --      2.3701                 0.8706                 1.7155

                     10                     11                     12
                      A                      A                      A
 Frequencies --    257.1973               285.8740               288.6433
 Red. masses --      4.2206                 1.2113                 4.1593
 Frc consts  --      0.1645                 0.0583                 0.2042
 IR Inten    --      1.5821                18.9828                 2.9301

                     13                     14                     15
                      A                      A                      A
 Frequencies --    320.2126               333.1975               371.5890
 Red. masses --      7.9767                 3.3232                 5.7241
 Frc consts  --      0.4819                 0.2174                 0.4657
 IR Inten    --      3.5867                 3.3885                 3.1790

                     16                     17                     18
                      A                      A                      A
 Frequencies --    424.9335               470.5535               488.5141
 Red. masses --      7.5730                 9.1175                 6.4114
 Frc consts  --      0.8057                 1.1894                 0.9015
 IR Inten    --      9.1988                20.3324                24.9901

                     19                     20                     21
                      A                      A                      A
 Frequencies --    522.4983               559.7823               649.5947
 Red. masses --      7.1761                 5.8247                 6.6917
 Frc consts  --      1.1543                 1.0754                 1.6637
 IR Inten    --     17.0874                37.5131                42.8305

                     22                     23                     24
                      A                      A                      A
 Frequencies --    657.6969               672.4932               682.6744
 Red. masses --      4.4106                 6.1100                 5.2285
 Frc consts  --      1.1241                 1.6281                 1.4357
 IR Inten    --      3.1142                13.4078                 6.5024

                     25                     26                     27
                      A                      A                      A
 Frequencies --    734.0843               773.7055               784.9311
 Red. masses --      4.4902                 1.3510                 1.1412
 Frc consts  --      1.4256                 0.4765                 0.4143
 IR Inten    --      8.2902                 6.3894                 3.1021

                     28                     29                     30
                      A                      A                      A
 Frequencies --    801.4058               834.5625               847.3465
 Red. masses --      1.6316                 2.5948                 2.2574
 Frc consts  --      0.6174                 1.0648                 0.9550
 IR Inten    --      6.5311                 6.9242                 8.9406

                     31                     32                     33
                      A                      A                      A
 Frequencies --    886.6439               911.0963               933.2648
 Red. masses --      1.7634                 1.4116                 1.3837
 Frc consts  --      0.8168                 0.6904                 0.7101
 IR Inten    --     13.5869                 1.8869                 3.8372

                     34                     35                     36
                      A                      A                      A
 Frequencies --    947.3162               985.1087              1020.5971
 Red. masses --      1.4248                 1.9144                 2.8866
 Frc consts  --      0.7534                 1.0946                 1.7715
 IR Inten    --     13.8048                 5.8628                30.0746

                     37                     38                     39
                      A                      A                      A
 Frequencies --   1029.3776              1037.5380              1045.6258
 Red. masses --      1.2297                 1.9951                 2.0279
 Frc consts  --      0.7677                 1.2654                 1.3063
 IR Inten    --      0.2016                13.5675                 2.1025

                     40                     41                     42
                      A                      A                      A
 Frequencies --   1067.7435              1152.1155              1209.5260
 Red. masses --      2.0280                 1.3690                 1.1686
 Frc consts  --      1.3622                 1.0706                 1.0072
 IR Inten    --      9.9280                15.3001                 6.2421

                     43                     44                     45
                      A                      A                      A
 Frequencies --   1237.3776              1259.7856              1281.5205
 Red. masses --      1.3572                 1.2567                 2.0867
 Frc consts  --      1.2243                 1.1751                 2.0191
 IR Inten    --     14.6211                 1.1161                 9.7533

                     46                     47                     48
                      A                      A                      A
 Frequencies --   1283.2000              1300.9601              1408.5905
 Red. masses --      1.3909                 1.3119                 1.2237
 Frc consts  --      1.3494                 1.3082                 1.4306
 IR Inten    --     41.2944                 6.4614                 0.5103

                     49                     50                     51
                      A                      A                      A
 Frequencies --   1452.7410              1477.2983              1480.0540
 Red. masses --      7.8782                 1.0820                 1.0982
 Frc consts  --      9.7961                 1.3913                 1.4174
 IR Inten    --    124.3998                 2.1228                 1.3380

                     52                     53                     54
                      A                      A                      A
 Frequencies --   1490.7498              1491.0618              1501.4691
 Red. masses --      1.0914                 1.0415                 1.0496
 Frc consts  --      1.4290                 1.3642                 1.3941
 IR Inten    --      3.6971                 5.4922                 2.2560

                     55                     56                     57
                      A                      A                      A
 Frequencies --   2565.2128              2590.4138              2670.0126
 Red. masses --      1.0397                 1.0380                 1.0380
 Frc consts  --      4.0309                 4.1038                 4.3599
 IR Inten    --     12.0332                17.3354                 1.7588

                     58                     59                     60
                      A                      A                      A
 Frequencies --   3028.2193              3038.5471              3039.4668
 Red. masses --      1.0661                 1.0350                 1.0610
 Frc consts  --      5.7601                 5.6304                 5.7751
 IR Inten    --     27.0837                38.2135                52.5272

                     61                     62                     63
                      A                      A                      A
 Frequencies --   3056.4628              3075.3854              3101.3787
 Red. masses --      1.0568                 1.1031                 1.1048
 Frc consts  --      5.8168                 6.1469                 6.2609
 IR Inten    --      8.8329                14.3535                 0.3670

                     64                     65                     66
                      A                      A                      A
 Frequencies --   3106.5037              3107.8570              3124.1510
 Red. masses --      1.0985                 1.1008                 1.1063
 Frc consts  --      6.2459                 6.2646                 6.3616
 IR Inten    --      9.9850                19.1399                22.1036

 - Thermochemistry -
 -------------------
 Temperature   298.150 Kelvin.  Pressure   1.00000 Atm.
 Atom     1 has atomic number  6 and mass  12.00000

 Molecular mass:   235.98219 amu.
 Principal axes and moments of inertia in atomic units:
                           1         2         3
     Eigenvalues --  1931.546374284.631965188.72916
           X            0.99980   0.01977  -0.00116
           Y           -0.01976   0.99980   0.00306
           Z            0.00122  -0.00303   0.99999
 This molecule is an asymmetric top.
 Rotational symmetry number  1.
 Warning -- assumption of classical behavior for rotation
           may cause significant error
 Rotational temperatures (Kelvin)      0.04484     0.02022     0.01669
 Rotational constants (GHZ):           0.93435     0.42121     0.34782
 Zero-point vibrational energy     462859.2 (Joules/Mol)
                                  110.62601 (Kcal/Mol)
 Warning -- explicit consideration of  20 degrees of freedom as
           vibrations may cause significant error
 Vibrational temperatures:     61.26    70.27   100.56   139.55   191.90
          (Kelvin)            242.29   288.13   329.35   343.74   370.05
                              411.31   415.29   460.71   479.40   534.63
                              611.38   677.02   702.86   751.76   805.40
                              934.62   946.28   967.57   982.22  1056.18
                             1113.19  1129.34  1153.04  1200.75  1219.14
                             1275.68  1310.86  1342.76  1362.98  1417.35
                             1468.41  1481.04  1492.79  1504.42  1536.24
                             1657.64  1740.24  1780.31  1812.55  1843.82
                             1846.24  1871.79  2026.65  2090.17  2125.50
                             2129.47  2144.86  2145.31  2160.28  3690.77
                             3727.03  3841.55  4356.93  4371.79  4373.11
                             4397.57  4424.79  4462.19  4469.57  4471.51
                             4494.96

 Zero-point correction=                           0.176294 (Hartree/Particle)
 Thermal correction to Energy=                    0.190360
 Thermal correction to Enthalpy=                  0.191304
 Thermal correction to Gibbs Free Energy=         0.134763
 Sum of electronic and zero-point Energies=          -1904.489298
 Sum of electronic and thermal Energies=             -1904.475232
 Sum of electronic and thermal Enthalpies=           -1904.474288
 Sum of electronic and thermal Free Energies=        -1904.530829

                     E (Thermal)             CV                S
                      KCal/Mol        Cal/Mol-Kelvin    Cal/Mol-Kelvin
 Total                  119.453             52.652            119.002
 Electronic               0.000              0.000              0.000
 Translational            0.889              2.981             42.277
 Rotational               0.889              2.981             32.129
 Vibrational            117.675             46.690             44.595
 Vibration     1          0.595              1.980              5.135
 Vibration     2          0.595              1.978              4.864
 Vibration     3          0.598              1.968              4.156
 Vibration     4          0.603              1.951              3.514
 Vibration     5          0.613              1.920              2.897
 Vibration     6          0.625              1.881              2.453
 Vibration     7          0.638              1.840              2.131
 Vibration     8          0.652              1.797              1.887
 Vibration     9          0.657              1.781              1.811
 Vibration    10          0.667              1.751              1.681
 Vibration    11          0.684              1.700              1.498
 Vibration    12          0.685              1.695              1.482
 Vibration    13          0.706              1.635              1.309
 Vibration    14          0.715              1.609              1.245
 Vibration    15          0.743              1.531              1.073
 Vibration    16          0.787              1.416              0.875
 Vibration    17          0.828              1.315              0.736
 Vibration    18          0.844              1.276              0.687
 Vibration    19          0.877              1.200              0.604
 Vibration    20          0.915              1.118              0.524

 Optimization completed.
    -- Stationary point found.
 Normal termination of Gaussian 16 at Tue May 16 03:49:15 2023.
