 Gaussian 16, Revision A.03,
 Gaussian 16:  ES64L-G16RevA.03 25-Dec-2016

 -----------------------------
 # opt freq b3lyp/6-31g(2df,p)
 -----------------------------

 -------------------
 Title Card Required
 -------------------
 Symbolic Z-matrix:
 Charge =  0 Multiplicity = 1

 SCF Done:  E(RB3LYP) =  -1297.75131544     A.U. after   24 cycles
 SCF Done:  E(RB3LYP) =  -1297.86654803     A.U. after   20 cycles
 SCF Done:  E(RB3LYP) =  -1298.04945953     A.U. after   18 cycles
 SCF Done:  E(RB3LYP) =  -1298.17915477     A.U. after   17 cycles
 SCF Done:  E(RB3LYP) =  -1298.33299894     A.U. after   16 cycles
 SCF Done:  E(RB3LYP) =  -1298.37538631     A.U. after   20 cycles
 SCF Done:  E(RB3LYP) =  -1298.44044897     A.U. after   18 cycles
 SCF Done:  E(RB3LYP) =  -1298.39956568     A.U. after   17 cycles
 SCF Done:  E(RB3LYP) =  -1298.52920499     A.U. after   15 cycles
 SCF Done:  E(RB3LYP) =  -1298.58529766     A.U. after   16 cycles
 SCF Done:  E(RB3LYP) =  -1298.74369668     A.U. after   14 cycles
 SCF Done:  E(RB3LYP) =  -1298.74426792     A.U. after   13 cycles
 SCF Done:  E(RB3LYP) =  -1298.74431899     A.U. after   12 cycles
 SCF Done:  E(RB3LYP) =  -1298.74433692     A.U. after   12 cycles
 SCF Done:  E(RB3LYP) =  -1298.74434284     A.U. after   11 cycles
 SCF Done:  E(RB3LYP) =  -1298.74434447     A.U. after    9 cycles
 SCF Done:  E(RB3LYP) =  -1298.74434494     A.U. after    8 cycles
 SCF Done:  E(RB3LYP) =  -1298.74434511     A.U. after    8 cycles
 SCF Done:  E(RB3LYP) =  -1298.74434516     A.U. after    7 cycles
 Optimization completed.
    -- Stationary point found.
 Normal termination of Gaussian 16 at Thu May 18 09:07:26 2023.

 ----------------------------------------------------------------------
 #N Geom=AllCheck Guess=TCheck SCRF=Check GenChk RB3LYP/6-31G(2df,p) Fr
 eq
 ----------------------------------------------------------------------

 Structure from the checkpoint file:  "CdC1CdCC2dCCdC2CdCCdC1CSS.chk"
 -------------------
 Title Card Required
 -------------------
 Charge =  0 Multiplicity = 1

                         Standard orientation:
 ---------------------------------------------------------------------
 Center     Atomic      Atomic             Coordinates (Angstroms)
 Number     Number       Type             X           Y           Z
 ---------------------------------------------------------------------
      1          6           0       -1.331058    2.155982   -1.500394
      2          6           0       -0.769563    0.709458   -1.265445
      3          6           0        0.648044    0.437188   -1.434191
      4          6           0        1.364885   -0.788199   -1.410731
      5          6           0        2.414231   -0.865211   -0.501415
      6          6           0        3.837194   -1.364810   -0.209908
      7          6           0        3.938909   -0.541477    0.853547
      8          6           0        2.490154   -0.075348    0.676050
      9          6           0        1.361333    0.596758    1.112142
     10          6           0        0.910455    1.824682    1.576028
     11          6           0       -0.208585    2.337761    0.862394
     12          6           0       -0.923079    1.756402   -0.168727
     13          6           0       -1.768282   -0.422013   -1.406673
     14         16           0       -1.717681   -1.689346   -0.063060
     15         16           0       -2.988403   -0.918385    1.378987
     16          1           0       -0.749635    2.890567   -2.060992
     17          1           0       -2.378695    2.118136   -1.793310
     18          1           0        1.260125    1.314374   -1.252392
     19          1           0        1.060384   -1.642493   -2.012292
     20          1           0        4.521558   -2.040029   -0.704730
     21          1           0        4.719750   -0.322696    1.568006
     22          1           0        0.535562    0.077113    0.641988
     23          1           0        1.504841    2.516977    2.162971
     24          1           0       -0.466468    3.378689    1.058837
     25          1           0       -1.581081   -0.988077   -2.326428
     26          1           0       -2.792387   -0.050257   -1.445546
     27          1           0       -2.124433   -0.095657    2.012982
 ---------------------------------------------------------------------

 SCF Done:  E(RB3LYP) =  -1298.74434516     A.U. after    1 cycles

 The electronic state is 1-A.
 Alpha  occ. eigenvalues --  -88.89013 -88.88593 -10.22262 -10.22044 -10.21491
 Alpha  occ. eigenvalues --  -10.21405 -10.21148 -10.20685 -10.20401 -10.20063
 Alpha  occ. eigenvalues --  -10.19556 -10.19418 -10.19365 -10.18442 -10.18165
 Alpha  occ. eigenvalues --   -7.95202  -7.95167  -5.91746  -5.91639  -5.91321
 Alpha  occ. eigenvalues --   -5.91257  -5.90681  -5.90664  -0.89527  -0.88233
 Alpha  occ. eigenvalues --   -0.80643  -0.79619  -0.78366  -0.72826  -0.71415
 Alpha  occ. eigenvalues --   -0.67660  -0.63829  -0.61914  -0.59912  -0.58345
 Alpha  occ. eigenvalues --   -0.56124  -0.51728  -0.50793  -0.49736  -0.48307
 Alpha  occ. eigenvalues --   -0.44941  -0.44784  -0.42670  -0.42054  -0.41736
 Alpha  occ. eigenvalues --   -0.40412  -0.39770  -0.37705  -0.36843  -0.36741
 Alpha  occ. eigenvalues --   -0.35123  -0.34750  -0.33381  -0.32370  -0.30109
 Alpha  occ. eigenvalues --   -0.29524  -0.25260  -0.24276  -0.22980  -0.22197
 Alpha  occ. eigenvalues --   -0.17127
 Alpha virt. eigenvalues --   -0.08147  -0.03515  -0.02166  -0.00435   0.03928
 Alpha virt. eigenvalues --    0.04443   0.05767   0.09374   0.10144   0.10821
 Alpha virt. eigenvalues --    0.11861   0.13165   0.13744   0.14096   0.15187

 Mulliken charges:
               1
     1  C   -0.390066
     2  C    0.243970
     3  C   -0.144095
     4  C   -0.327708
     5  C    0.294562
     6  C   -0.201750
     7  C   -0.218585
     8  C    0.214152
     9  C   -0.172668
    10  C   -0.222899
    11  C   -0.123818
    12  C    0.102710
    13  C   -0.308416
    14  S   -0.077022
    15  S   -0.208049
    16  H    0.115117
    17  H    0.125178
    18  H    0.124146
    19  H    0.105101
    20  H    0.127348
    21  H    0.128625
    22  H    0.163637
    23  H    0.088143
    24  H    0.100702
    25  H    0.133527
    26  H    0.145647
    27  H    0.182514
 Sum of Mulliken charges =  -0.00000

 Dipole moment (field-independent basis, Debye):
    X=              2.3372    Y=              1.2477    Z=             -1.3627  Tot=              2.9793
 Quadrupole moment (field-independent basis, Debye-Ang):
   XX=            -96.0558   YY=           -101.1953   ZZ=            -99.0436
   XY=             -5.9323   XZ=              5.0085   YZ=              3.3873

  Exact polarizability: 226.268 -41.399 169.344  13.571  18.667 161.242
 Approx polarizability: 414.796-126.758 337.964  23.730  74.021 353.840

                      1                      2                      3
                      A                      A                      A
 Frequencies --     29.1016                54.1295                71.1664
 Red. masses --      8.4297                 7.0118                 7.0846
 Frc consts  --      0.0042                 0.0121                 0.0211
 IR Inten    --      0.0943                 0.3561                 0.7355

                      4                      5                      6
                      A                      A                      A
 Frequencies --    114.5370               142.5310               191.7094
 Red. masses --      5.1156                 5.5880                 3.8648
 Frc consts  --      0.0395                 0.0669                 0.0837
 IR Inten    --      0.8217                 1.2981                 0.5638

                      7                      8                      9
                      A                      A                      A
 Frequencies --    223.3194               253.3810               258.3578
 Red. masses --      3.7527                 3.2806                 3.8406
 Frc consts  --      0.1103                 0.1241                 0.1510
 IR Inten    --      1.9781                 2.4528                 1.0188

                     10                     11                     12
                      A                      A                      A
 Frequencies --    282.1253               294.0394               330.8324
 Red. masses --      2.1189                 3.6382                 1.7356
 Frc consts  --      0.0994                 0.1853                 0.1119
 IR Inten    --     26.8160                 5.7375                 0.9263

                     13                     14                     15
                      A                      A                      A
 Frequencies --    339.1111               354.0308               413.7203
 Red. masses --      2.4335                 2.8853                 3.3999
 Frc consts  --      0.1649                 0.2131                 0.3429
 IR Inten    --      3.6442                12.7257                 7.4354

                     16                     17                     18
                      A                      A                      A
 Frequencies --    426.7945               478.3129               502.7011
 Red. masses --      3.7762                 3.9472                12.9605
 Frc consts  --      0.4053                 0.5321                 1.9297
 IR Inten    --      1.8889                 2.9773                 1.9789

                     19                     20                     21
                      A                      A                      A
 Frequencies --    514.9645               524.6009               576.0849
 Red. masses --      3.1933                 4.0488                 3.9570
 Frc consts  --      0.4989                 0.6565                 0.7737
 IR Inten    --     27.0513                 3.8656                 6.3191

                     22                     23                     24
                      A                      A                      A
 Frequencies --    601.9964               643.6215               686.6979
 Red. masses --      4.6579                 4.6584                 3.1735
 Frc consts  --      0.9946                 1.1370                 0.8817
 IR Inten    --     10.2942                10.1755                 4.2554

                     25                     26                     27
                      A                      A                      A
 Frequencies --    710.4740               722.0538               742.5909
 Red. masses --      1.3892                 4.9267                 2.7408
 Frc consts  --      0.4131                 1.5134                 0.8905
 IR Inten    --     39.2933                 4.8790                 4.7158

                     28                     29                     30
                      A                      A                      A
 Frequencies --    760.1094               767.9766               807.8380
 Red. masses --      2.6984                 2.4836                 1.9331
 Frc consts  --      0.9186                 0.8630                 0.7433
 IR Inten    --     29.5114                18.9515                24.4266

                     31                     32                     33
                      A                      A                      A
 Frequencies --    836.6703               853.5241               871.4245
 Red. masses --      2.3595                 2.0915                 1.4284
 Frc consts  --      0.9732                 0.8977                 0.6391
 IR Inten    --      1.2937                15.3348                12.7313

                     34                     35                     36
                      A                      A                      A
 Frequencies --    880.8878               885.6255               892.2741
 Red. masses --      1.5899                 1.3859                 1.4390
 Frc consts  --      0.7269                 0.6404                 0.6750
 IR Inten    --      9.6811                15.0596                11.4234

                     37                     38                     39
                      A                      A                      A
 Frequencies --    916.2776               959.6750               969.5526
 Red. masses --      1.4549                 2.6419                 2.1537
 Frc consts  --      0.7197                 1.4336                 1.1928
 IR Inten    --      4.9683                 2.8481                 3.8427

                     40                     41                     42
                      A                      A                      A
 Frequencies --   1015.5599              1029.0108              1054.7343
 Red. masses --      1.2327                 2.0271                 1.4965
 Frc consts  --      0.7491                 1.2646                 0.9809
 IR Inten    --     13.3267                46.2255                17.9403

                     43                     44                     45
                      A                      A                      A
 Frequencies --   1064.6194              1069.4042              1133.5981
 Red. masses --      1.6616                 1.2226                 2.5733
 Frc consts  --      1.1096                 0.8238                 1.9483
 IR Inten    --      6.2251                 3.6607                16.8013

                     46                     47                     48
                      A                      A                      A
 Frequencies --   1155.3321              1195.1815              1210.9801
 Red. masses --      2.2679                 1.4137                 1.8477
 Frc consts  --      1.7836                 1.1898                 1.5964
 IR Inten    --      2.1264                 5.8898                15.6104

                     49                     50                     51
                      A                      A                      A
 Frequencies --   1216.5554              1260.4551              1267.7492
 Red. masses --      1.5080                 1.3747                 1.5167
 Frc consts  --      1.3150                 1.2868                 1.4362
 IR Inten    --      8.9388                 9.8688                16.1219

                     52                     53                     54
                      A                      A                      A
 Frequencies --   1313.6430              1353.9798              1364.8995
 Red. masses --      1.8770                 1.6571                 1.8994
 Frc consts  --      1.9084                 1.7898                 2.0848
 IR Inten    --     13.0428                 1.0954                 0.5681

                     55                     56                     57
                      A                      A                      A
 Frequencies --   1407.7655              1443.7267              1453.2027
 Red. masses --      2.4375                 1.1146                 2.0515
 Frc consts  --      2.8462                 1.3688                 2.5525
 IR Inten    --      8.9592                 8.1575                13.5903

                     58                     59                     60
                      A                      A                      A
 Frequencies --   1478.3980              1486.1223              1521.4515
 Red. masses --      1.3462                 1.4584                 5.7417
 Frc consts  --      1.7336                 1.8977                 7.8308
 IR Inten    --      1.2424                 2.9523                 2.6645

                     61                     62                     63
                      A                      A                      A
 Frequencies --   1545.3977              1569.3740              1646.9495
 Red. masses --      4.6969                 5.7302                 6.0264
 Frc consts  --      6.6091                 8.3152                 9.6310
 IR Inten    --     31.7574                 5.7009                16.6968

                     64                     65                     66
                      A                      A                      A
 Frequencies --   2628.7232              3044.8172              3065.8451
 Red. masses --      1.0393                 1.0648                 1.0549
 Frc consts  --      4.2314                 5.8164                 5.8419
 IR Inten    --      2.5094                15.0750                58.1196

                     67                     68                     69
                      A                      A                      A
 Frequencies --   3123.0232              3126.5447              3133.4188
 Red. masses --      1.0850                 1.0994                 1.0871
 Frc consts  --      6.2348                 6.3316                 6.2887
 IR Inten    --     15.4332                 0.9824                12.5048

                     70                     71                     72
                      A                      A                      A
 Frequencies --   3146.7061              3169.7585              3174.2729
 Red. masses --      1.1110                 1.0819                 1.0851
 Frc consts  --      6.4815                 6.4043                 6.4418
 IR Inten    --     12.6340                 9.0419                 5.8658

                     73                     74                     75
                      A                      A                      A
 Frequencies --   3184.1884              3219.6988              3251.7744
 Red. masses --      1.0863                 1.0848                 1.1145
 Frc consts  --      6.4891                 6.6255                 6.9432
 IR Inten    --      9.4721                 2.3150                12.8755

 - Thermochemistry -
 -------------------
 Temperature   298.150 Kelvin.  Pressure   1.00000 Atm.
 Atom     1 has atomic number  6 and mass  12.00000

 Molecular mass:   232.03804 amu.
 Principal axes and moments of inertia in atomic units:
                           1         2         3
     Eigenvalues --  2495.199704922.131195382.91755
           X            0.99968  -0.02041   0.01509
           Y            0.01997   0.99939   0.02857
           Z           -0.01566  -0.02826   0.99948
 This molecule is an asymmetric top.
 Rotational symmetry number  1.
 Warning -- assumption of classical behavior for rotation
           may cause significant error
 Rotational temperatures (Kelvin)      0.03471     0.01760     0.01609
 Rotational constants (GHZ):           0.72329     0.36666     0.33527
 Zero-point vibrational energy     534800.6 (Joules/Mol)
                                  127.82042 (Kcal/Mol)
 Warning -- explicit consideration of  22 degrees of freedom as
           vibrations may cause significant error
 Vibrational temperatures:     41.87    77.88   102.39   164.79   205.07
          (Kelvin)            275.83   321.31   364.56   371.72   405.92
                              423.06   475.99   487.91   509.37   595.25
                              614.06   688.19   723.27   740.92   754.78
                              828.86   866.14   926.03   988.01  1022.21
                             1038.87  1068.42  1093.63  1104.95  1162.30
                             1203.78  1228.03  1253.79  1267.40  1274.22
                             1283.78  1318.32  1380.76  1394.97  1461.16
                             1480.52  1517.53  1531.75  1538.63  1630.99
                             1662.27  1719.60  1742.33  1750.35  1813.51
                             1824.01  1890.04  1948.07  1963.79  2025.46
                             2077.20  2090.83  2127.08  2138.20  2189.03
                             2223.48  2257.98  2369.59  3782.15  4380.81
                             4411.07  4493.33  4498.40  4508.29  4527.41
                             4560.58  4567.07  4581.34  4632.43  4678.58

 Zero-point correction=                           0.203695 (Hartree/Particle)
 Thermal correction to Energy=                    0.217885
 Thermal correction to Enthalpy=                  0.218830
 Thermal correction to Gibbs Free Energy=         0.162193
 Sum of electronic and zero-point Energies=          -1298.540650
 Sum of electronic and thermal Energies=             -1298.526460
 Sum of electronic and thermal Enthalpies=           -1298.525516
 Sum of electronic and thermal Free Energies=        -1298.582152

                     E (Thermal)             CV                S
                      KCal/Mol        Cal/Mol-Kelvin    Cal/Mol-Kelvin
 Total                  136.725             55.894            119.201
 Electronic               0.000              0.000              0.000
 Translational            0.889              2.981             42.227
 Rotational               0.889              2.981             32.558
 Vibrational            134.948             49.933             44.416
 Vibration     1          0.593              1.984              5.890
 Vibration     2          0.596              1.976              4.661
 Vibration     3          0.598              1.968              4.121
 Vibration     4          0.607              1.937              3.191
 Vibration     5          0.616              1.911              2.770
 Vibration     6          0.634              1.851              2.211
 Vibration     7          0.649              1.806              1.932
 Vibration     8          0.665              1.757              1.707
 Vibration     9          0.667              1.749              1.673
 Vibration    10          0.681              1.707              1.521
 Vibration    11          0.689              1.685              1.451
 Vibration    12          0.713              1.614              1.256
 Vibration    13          0.719              1.597              1.216
 Vibration    14          0.730              1.567              1.148
 Vibration    15          0.777              1.440              0.914
 Vibration    16          0.788              1.412              0.869
 Vibration    17          0.835              1.298              0.715
 Vibration    18          0.858              1.244              0.651
 Vibration    19          0.870              1.217              0.622
 Vibration    20          0.880              1.196              0.599
 Vibration    21          0.932              1.083              0.493
 Vibration    22          0.960              1.028              0.446

 Optimization completed.
    -- Stationary point found.
 Normal termination of Gaussian 16 at Thu May 18 11:19:42 2023.
