 Gaussian 16, Revision A.03,
 Gaussian 16:  ES64L-G16RevA.03 25-Dec-2016

 -----------------------------
 # opt freq b3lyp/6-31g(2df,p)
 -----------------------------

 -------------------
 Title Card Required
 -------------------
 Symbolic Z-matrix:
 Charge =  0 Multiplicity = 1

 SCF Done:  E(RB3LYP) =  -916.057802396     A.U. after   26 cycles
 SCF Done:  E(RB3LYP) =  -916.306019117     A.U. after   21 cycles
 SCF Done:  E(RB3LYP) =  -916.584803779     A.U. after   21 cycles
 SCF Done:  E(RB3LYP) =  -916.729096655     A.U. after   24 cycles
 SCF Done:  E(RB3LYP) =  -916.739372836     A.U. after   26 cycles
 SCF Done:  E(RB3LYP) =  -916.823982149     A.U. after   22 cycles
 SCF Done:  E(RB3LYP) =  -916.828147583     A.U. after   17 cycles
 SCF Done:  E(RB3LYP) =  -917.034965408     A.U. after   25 cycles
 SCF Done:  E(RB3LYP) =  -916.075813044     A.U. after   27 cycles
 SCF Done:  E(RB3LYP) =  -917.045640277     A.U. after   21 cycles
 SCF Done:  E(RB3LYP) =  -917.817613787     A.U. after   11 cycles
 SCF Done:  E(RB3LYP) =  -917.817617997     A.U. after   10 cycles
 SCF Done:  E(RB3LYP) =  -917.817619934     A.U. after    9 cycles
 SCF Done:  E(RB3LYP) =  -917.817620828     A.U. after    8 cycles
 SCF Done:  E(RB3LYP) =  -917.817621368     A.U. after    8 cycles
 SCF Done:  E(RB3LYP) =  -917.817622070     A.U. after    9 cycles
 SCF Done:  E(RB3LYP) =  -917.817623085     A.U. after    9 cycles
 SCF Done:  E(RB3LYP) =  -917.817623654     A.U. after    9 cycles
 SCF Done:  E(RB3LYP) =  -917.817623770     A.U. after    8 cycles
 Optimization completed.
    -- Stationary point found.
 Normal termination of Gaussian 16 at Sat May 20 01:47:56 2023.

 ----------------------------------------------------------------------
 #N Geom=AllCheck Guess=TCheck SCRF=Check GenChk RB3LYP/6-31G(2df,p) Fr
 eq
 ----------------------------------------------------------------------

 Structure from the checkpoint file:  "CdC1CdCCdCqCqCrdNrCdCCdCS1.chk"
 -------------------
 Title Card Required
 -------------------
 Charge =  0 Multiplicity = 1

                         Standard orientation:
 ---------------------------------------------------------------------
 Center     Atomic      Atomic             Coordinates (Angstroms)
 Number     Number       Type             X           Y           Z
 ---------------------------------------------------------------------
      1          6           0       -5.546722   -0.581964    0.180496
      2          6           0       -4.345538   -1.010728   -0.064987
      3          6           0       -3.129805   -1.444127   -0.313486
      4          6           0       -1.916056   -0.751119    0.077464
      5          6           0       -0.678915   -1.219467   -0.182202
      6          6           0        0.591199   -0.605543    0.170217
      7          6           0        0.241996    2.238096   -0.181553
      8          6           0        0.279260    1.865472   -1.636389
      9          7           0        0.008652    3.427412    0.188539
     10          6           0        1.759986   -1.238273   -0.097705
     11          6           0        3.115606   -0.770728    0.183689
     12          6           0        4.313196   -1.155992   -0.639892
     13          6           0        4.147157   -1.770651    0.700649
     14         16           0        0.605178    0.954734    1.050431
     15          1           0       -6.077249    0.063171   -0.516108
     16          1           0       -6.073386   -0.849177    1.093833
     17          1           0       -3.016410   -2.387360   -0.848010
     18          1           0       -2.036632    0.184743    0.614035
     19          1           0       -0.588593   -2.168751   -0.710483
     20          1           0       -0.488829    1.121577   -1.865942
     21          1           0        1.246069    1.428119   -1.902550
     22          1           0        0.105196    2.765623   -2.227717
     23          1           0        0.005028    3.533234    1.205394
     24          1           0        1.687303   -2.215283   -0.574722
     25          1           0        3.179067    0.197116    0.679866
     26          1           0        4.234139   -1.859011   -1.470245
     27          1           0        5.092699   -0.411487   -0.781823
 ---------------------------------------------------------------------

 SCF Done:  E(RB3LYP) =  -917.817623770     A.U. after    1 cycles

 The electronic state is 1-A.
 Alpha  occ. eigenvalues --  -88.88808 -14.31538 -10.26177 -10.24758 -10.22964
 Alpha  occ. eigenvalues --  -10.21758 -10.21572 -10.21291 -10.20605 -10.20327
 Alpha  occ. eigenvalues --  -10.20054 -10.19935 -10.19559 -10.19046  -7.95065
 Alpha  occ. eigenvalues --   -5.91530  -5.91158  -5.90679  -0.91402  -0.89239
 Alpha  occ. eigenvalues --   -0.84252  -0.81184  -0.76408  -0.74680  -0.71640
 Alpha  occ. eigenvalues --   -0.70608  -0.64171  -0.59284  -0.56707  -0.55239
 Alpha  occ. eigenvalues --   -0.54116  -0.53254  -0.49778  -0.48327  -0.45825
 Alpha  occ. eigenvalues --   -0.45173  -0.44607  -0.43680  -0.43093  -0.41953
 Alpha  occ. eigenvalues --   -0.40913  -0.40103  -0.38335  -0.37707  -0.35923
 Alpha  occ. eigenvalues --   -0.33282  -0.32432  -0.32181  -0.29436  -0.27407
 Alpha  occ. eigenvalues --   -0.26222  -0.24882  -0.24244  -0.20554
 Alpha virt. eigenvalues --   -0.10651  -0.05197   0.00021   0.00681   0.01283
 Alpha virt. eigenvalues --    0.04241   0.06472   0.09328   0.10249   0.10905
 Alpha virt. eigenvalues --    0.11141   0.12431   0.12598   0.13466   0.14501

 Mulliken charges:
               1
     1  C   -0.474506
     2  C    0.399986
     3  C   -0.331772
     4  C   -0.094993
     5  C   -0.117069
     6  C    0.141651
     7  C    0.296960
     8  C   -0.444933
     9  N   -0.447202
    10  C   -0.099017
    11  C   -0.067354
    12  C   -0.315698
    13  C   -0.072283
    14  S   -0.210819
    15  H    0.140865
    16  H    0.141255
    17  H    0.113894
    18  H    0.122435
    19  H    0.086831
    20  H    0.150727
    21  H    0.141246
    22  H    0.146647
    23  H    0.235611
    24  H    0.102060
    25  H    0.145301
    26  H    0.150434
    27  H    0.159743
 Sum of Mulliken charges =  -0.00000

 Dipole moment (field-independent basis, Debye):
    X=             -0.2581    Y=             -1.0436    Z=             -2.3436  Tot=              2.5784
 Quadrupole moment (field-independent basis, Debye-Ang):
   XX=            -82.5006   YY=            -98.9457   ZZ=            -89.9863
   XY=              5.5315   XZ=             -8.6254   YZ=              7.3336

  Exact polarizability: 331.122 -35.178 154.725 -11.008   8.982 109.063
 Approx polarizability: 502.630 -82.695 254.067 -21.293  18.815 178.316

                      1                      2                      3
                      A                      A                      A
 Frequencies --     25.6627                35.4476                46.4246
 Red. masses --      5.9442                 4.3643                 3.0307
 Frc consts  --      0.0023                 0.0032                 0.0038
 IR Inten    --      0.3950                 0.4317                 0.7173

                      4                      5                      6
                      A                      A                      A
 Frequencies --     62.0208                75.7607               101.7064
 Red. masses --      4.0034                 3.9167                 3.1645
 Frc consts  --      0.0091                 0.0132                 0.0193
 IR Inten    --      1.1410                 6.6045                 2.0721

                      7                      8                      9
                      A                      A                      A
 Frequencies --    127.2545               135.2376               176.3467
 Red. masses --      5.0066                 3.6625                 2.0460
 Frc consts  --      0.0478                 0.0395                 0.0375
 IR Inten    --      0.6990                 1.2498                 1.7753

                     10                     11                     12
                      A                      A                      A
 Frequencies --    185.5992               209.3689               218.5560
 Red. masses --      1.0829                 5.7067                 3.2542
 Frc consts  --      0.0220                 0.1474                 0.0916
 IR Inten    --      0.2465                 3.2952                 1.4633

                     13                     14                     15
                      A                      A                      A
 Frequencies --    261.9254               294.2078               336.7500
 Red. masses --      4.0722                 4.9017                 2.6443
 Frc consts  --      0.1646                 0.2500                 0.1767
 IR Inten    --      1.3932                 0.5473                11.5233

                     16                     17                     18
                      A                      A                      A
 Frequencies --    346.9306               361.1921               388.2038
 Red. masses --      3.3751                 2.2271                 4.1535
 Frc consts  --      0.2393                 0.1712                 0.3688
 IR Inten    --      2.9833                 2.5856                 7.7923

                     19                     20                     21
                      A                      A                      A
 Frequencies --    430.0778               486.9669               521.7262
 Red. masses --      4.7897                 2.8991                 2.6089
 Frc consts  --      0.5220                 0.4051                 0.4184
 IR Inten    --      4.3451                 0.9639                 7.6365

                     22                     23                     24
                      A                      A                      A
 Frequencies --    569.7121               603.3295               606.6565
 Red. masses --      3.8088                 2.2319                 2.4509
 Frc consts  --      0.7284                 0.4787                 0.5314
 IR Inten    --      2.3080                19.7799                28.8500

                     25                     26                     27
                      A                      A                      A
 Frequencies --    624.7975               646.5308               674.2398
 Red. masses --      3.7344                 2.7514                 2.8106
 Frc consts  --      0.8589                 0.6776                 0.7528
 IR Inten    --      9.6851                 8.9595                 9.7891

                     28                     29                     30
                      A                      A                      A
 Frequencies --    723.0752               777.2311               867.9407
 Red. masses --      1.4806                 3.2504                 1.5547
 Frc consts  --      0.4561                 1.1569                 0.6900
 IR Inten    --     11.4579               159.2350                43.6062

                     31                     32                     33
                      A                      A                      A
 Frequencies --    872.8534               882.1462               892.9661
 Red. masses --      1.3521                 1.3161                 2.3525
 Frc consts  --      0.6069                 0.6034                 1.1052
 IR Inten    --     25.6002                39.3304                 6.9203

                     34                     35                     36
                      A                      A                      A
 Frequencies --    912.7611               928.4087               967.8168
 Red. masses --      1.2869                 1.8361                 2.3711
 Frc consts  --      0.6317                 0.9324                 1.3086
 IR Inten    --      4.5026                 9.3450                10.6986

                     37                     38                     39
                      A                      A                      A
 Frequencies --    979.4677              1006.6067              1013.3814
 Red. masses --      1.6753                 1.3926                 1.3158
 Frc consts  --      0.9469                 0.8313                 0.7961
 IR Inten    --     57.8388                 6.9996                34.2803

                     40                     41                     42
                      A                      A                      A
 Frequencies --   1013.7184              1072.1043              1073.6122
 Red. masses --      1.5255                 1.4532                 3.4913
 Frc consts  --      0.9237                 0.9841                 2.3710
 IR Inten    --     79.1664                11.1130                 1.6134

                     43                     44                     45
                      A                      A                      A
 Frequencies --   1076.2476              1120.4042              1179.7109
 Red. masses --      1.4692                 2.5887                 1.8101
 Frc consts  --      1.0027                 1.9146                 1.4843
 IR Inten    --     11.8824                19.2406                 0.3259

                     46                     47                     48
                      A                      A                      A
 Frequencies --   1189.2775              1206.6285              1249.9459
 Red. masses --      2.8792                 1.5307                 1.2152
 Frc consts  --      2.3993                 1.3131                 1.1186
 IR Inten    --     28.4657                 9.8471                 0.7946

                     49                     50                     51
                      A                      A                      A
 Frequencies --   1273.1271              1304.6621              1328.1594
 Red. masses --      1.6046                 1.7305                 1.4954
 Frc consts  --      1.5324                 1.7355                 1.5542
 IR Inten    --    320.0104                48.2247                19.7635

                     52                     53                     54
                      A                      A                      A
 Frequencies --   1348.8557              1390.1125              1398.7877
 Red. masses --      1.5372                 1.2245                 1.5003
 Frc consts  --      1.6478                 1.3941                 1.7296
 IR Inten    --      3.0996                16.6874                59.0599

                     55                     56                     57
                      A                      A                      A
 Frequencies --   1399.5350              1468.8859              1475.9770
 Red. masses --      1.3038                 1.0535                 1.0512
 Frc consts  --      1.5046                 1.3392                 1.3492
 IR Inten    --     12.1308                 9.5162                 5.3521

                     58                     59                     60
                      A                      A                      A
 Frequencies --   1478.4956              1618.8829              1666.5043
 Red. masses --      1.6103                 6.1266                 5.4442
 Frc consts  --      2.0739                 9.4602                 8.9083
 IR Inten    --      1.9810                37.8109                12.9468

                     61                     62                     63
                      A                      A                      A
 Frequencies --   1704.7363              2045.7711              3050.5136
 Red. masses --      7.8645                10.1637                 1.0348
 Frc consts  --     13.4660                25.0620                 5.6736
 IR Inten    --    127.4212               119.3778                 4.6543

                     64                     65                     66
                      A                      A                      A
 Frequencies --   3090.6203              3114.1369              3116.2417
 Red. masses --      1.0583                 1.0814                 1.0991
 Frc consts  --      5.9558                 6.1791                 6.2885
 IR Inten    --      4.5462                12.3378                 3.8905

                     67                     68                     69
                      A                      A                      A
 Frequencies --   3116.9645              3120.1258              3123.3916
 Red. masses --      1.0618                 1.0839                 1.0866
 Frc consts  --      6.0782                 6.2168                 6.2454
 IR Inten    --     10.6261                 4.0736                12.4335

                     70                     71                     72
                      A                      A                      A
 Frequencies --   3132.7906              3150.0792              3174.7025
 Red. masses --      1.0863                 1.1030                 1.1064
 Frc consts  --      6.2812                 6.4488                 6.5702
 IR Inten    --     22.6331                 5.9270                 2.4998

                     73                     74                     75
                      A                      A                      A
 Frequencies --   3182.6155              3185.5684              3447.1248
 Red. masses --      1.0882                 1.1131                 1.0753
 Frc consts  --      6.4944                 6.6554                 7.5280
 IR Inten    --      6.7663                 1.8123                 1.0777

 - Thermochemistry -
 -------------------
 Temperature   298.150 Kelvin.  Pressure   1.00000 Atm.
 Atom     1 has atomic number  6 and mass  12.00000

 Molecular mass:   203.07687 amu.
 Principal axes and moments of inertia in atomic units:
                           1         2         3
     Eigenvalues --  2108.946245760.184747140.58096
           X            0.99996   0.00134  -0.00871
           Y           -0.00132   1.00000   0.00129
           Z            0.00871  -0.00128   0.99996
 This molecule is an asymmetric top.
 Rotational symmetry number  1.
 Warning -- assumption of classical behavior for rotation
           may cause significant error
 Rotational temperatures (Kelvin)      0.04107     0.01504     0.01213
 Rotational constants (GHZ):           0.85575     0.31331     0.25274
 Zero-point vibrational energy     547090.0 (Joules/Mol)
                                  130.75765 (Kcal/Mol)
 Warning -- explicit consideration of  24 degrees of freedom as
           vibrations may cause significant error
 Vibrational temperatures:     36.92    51.00    66.79    89.23   109.00
          (Kelvin)            146.33   183.09   194.58   253.72   267.04
                              301.24   314.45   376.85   423.30   484.51
                              499.16   519.67   558.54   618.79   700.64
                              750.65   819.69   868.06   872.84   898.94
                              930.21   970.08  1040.34  1118.26  1248.77
                             1255.84  1269.21  1284.78  1313.26  1335.77
                             1392.47  1409.24  1448.28  1458.03  1458.51
                             1542.52  1544.69  1548.48  1612.01  1697.34
                             1711.11  1736.07  1798.39  1831.75  1877.12
                             1910.93  1940.70  2000.06  2012.54  2013.62
                             2113.40  2123.60  2127.23  2329.21  2397.73
                             2452.74  2943.41  4389.01  4446.71  4480.55
                             4483.58  4484.62  4489.17  4493.86  4507.39
                             4532.26  4567.69  4579.07  4583.32  4959.64

 Zero-point correction=                           0.208376 (Hartree/Particle)
 Thermal correction to Energy=                    0.224642
 Thermal correction to Enthalpy=                  0.225586
 Thermal correction to Gibbs Free Energy=         0.162691
 Sum of electronic and zero-point Energies=           -917.609248
 Sum of electronic and thermal Energies=              -917.592982
 Sum of electronic and thermal Enthalpies=            -917.592037
 Sum of electronic and thermal Free Energies=         -917.654933

                     E (Thermal)             CV                S
                      KCal/Mol        Cal/Mol-Kelvin    Cal/Mol-Kelvin
 Total                  140.965             58.183            132.375
 Electronic               0.000              0.000              0.000
 Translational            0.889              2.981             41.830
 Rotational               0.889              2.981             32.828
 Vibrational            139.188             52.221             57.717
 Vibration     1          0.593              1.985              6.139
 Vibration     2          0.594              1.982              5.499
 Vibration     3          0.595              1.979              4.964
 Vibration     4          0.597              1.972              4.392
 Vibration     5          0.599              1.965              3.998
 Vibration     6          0.604              1.948              3.421
 Vibration     7          0.611              1.926              2.987
 Vibration     8          0.613              1.918              2.870
 Vibration     9          0.628              1.871              2.367
 Vibration    10          0.632              1.860              2.271
 Vibration    11          0.642              1.826              2.049
 Vibration    12          0.646              1.813              1.971
 Vibration    13          0.669              1.743              1.649
 Vibration    14          0.689              1.685              1.450
 Vibration    15          0.717              1.602              1.228
 Vibration    16          0.725              1.582              1.180
 Vibration    17          0.735              1.552              1.117
 Vibration    18          0.756              1.495              1.007
 Vibration    19          0.791              1.405              0.858
 Vibration    20          0.843              1.279              0.692
 Vibration    21          0.877              1.202              0.606
 Vibration    22          0.926              1.097              0.505
 Vibration    23          0.962              1.025              0.444
 Vibration    24          0.965              1.018              0.438

                           ! Non-Optimized Parameters !
 Normal termination of Gaussian 16 at Sat May 20 03:02:31 2023.
