 Gaussian 16, Revision A.03,
 Gaussian 16:  ES64L-G16RevA.03 25-Dec-2016

 -----------------------------
 # opt freq b3lyp/6-31g(2df,p)
 -----------------------------

 -------------------
 Title Card Required
 -------------------
 Symbolic Z-matrix:
 Charge =  0 Multiplicity = 1

 SCF Done:  E(RB3LYP) =  -1617.59120473     A.U. after   36 cycles
 SCF Done:  E(RB3LYP) =  -1617.68992297     A.U. after   23 cycles
 SCF Done:  E(RB3LYP) =  -1617.80122878     A.U. after   23 cycles
 SCF Done:  E(RB3LYP) =  -1617.83435122     A.U. after   20 cycles
 SCF Done:  E(RB3LYP) =  -1617.86292979     A.U. after   22 cycles
 SCF Done:  E(RB3LYP) =  -1617.95809292     A.U. after   19 cycles
 SCF Done:  E(RB3LYP) =  -1618.04650414     A.U. after   17 cycles
 SCF Done:  E(RB3LYP) =  -1618.10467537     A.U. after   16 cycles
 SCF Done:  E(RB3LYP) =  -1618.17005463     A.U. after   17 cycles
 SCF Done:  E(RB3LYP) =  -1618.22202429     A.U. after   15 cycles
 SCF Done:  E(RB3LYP) =  -1618.28140481     A.U. after   12 cycles
 SCF Done:  E(RB3LYP) =  -1618.28135731     A.U. after   13 cycles
 SCF Done:  E(RB3LYP) =  -1618.28150959     A.U. after   12 cycles
 SCF Done:  E(RB3LYP) =  -1618.28153719     A.U. after   11 cycles
 SCF Done:  E(RB3LYP) =  -1618.28154680     A.U. after    9 cycles
 SCF Done:  E(RB3LYP) =  -1618.28155512     A.U. after    9 cycles
 SCF Done:  E(RB3LYP) =  -1618.28155878     A.U. after    9 cycles
 SCF Done:  E(RB3LYP) =  -1618.28155983     A.U. after    8 cycles
 SCF Done:  E(RB3LYP) =  -1618.28156011     A.U. after    8 cycles
 Optimization completed.
    -- Stationary point found.
 Normal termination of Gaussian 16 at Sat May 20 09:37:51 2023.

 ----------------------------------------------------------------------
 #N Geom=AllCheck Guess=TCheck SCRF=Check GenChk RB3LYP/6-31G(2df,p) Fr
 eq
 ----------------------------------------------------------------------

 Structure from the checkpoint file:  "CdC1CC2dCdCdC2SCdCSCdCS1.chk"
 -------------------
 Title Card Required
 -------------------
 Charge =  0 Multiplicity = 1

                         Standard orientation:
 ---------------------------------------------------------------------
 Center     Atomic      Atomic             Coordinates (Angstroms)
 Number     Number       Type             X           Y           Z
 ---------------------------------------------------------------------
      1          6           0        1.069102    3.103009   -0.894104
      2          6           0        0.422418    2.134745   -0.243702
      3          6           0        0.946540    1.532798    1.042260
      4          6           0        1.766428    0.284280    0.915378
      5          6           0        2.924959   -0.179404    1.642449
      6          6           0        3.438877   -0.281259    0.275277
      7          6           0        2.087293   -0.721116   -0.005341
      8         16           0        1.521746   -2.119699   -0.830594
      9          6           0       -0.240796   -2.095766   -0.674136
     10          6           0       -0.928630   -1.487467    0.289304
     11         16           0       -2.691127   -1.403159    0.352151
     12          6           0       -2.903914    0.306687    0.754146
     13          6           0       -2.207838    1.379408    0.342771
     14         16           0       -1.036269    1.418879   -0.985896
     15          1           0        2.024772    3.472448   -0.534944
     16          1           0        0.681966    3.535436   -1.809126
     17          1           0        0.114244    1.309244    1.723058
     18          1           0        1.567236    2.269230    1.563354
     19          1           0       -0.721996   -2.591617   -1.510248
     20          1           0       -0.435012   -0.992464    1.115936
     21          1           0       -3.728930    0.459292    1.444615
     22          1           0       -2.458516    2.346600    0.770962
 ---------------------------------------------------------------------

 SCF Done:  E(RB3LYP) =  -1618.28156011     A.U. after    1 cycles

 The electronic state is 1-A.
 Alpha  occ. eigenvalues --  -88.93290 -88.91255 -88.90043 -10.27694 -10.26205
 Alpha  occ. eigenvalues --  -10.24452 -10.24328 -10.24271 -10.23988 -10.23687
 Alpha  occ. eigenvalues --  -10.23304 -10.21973 -10.21837 -10.20374  -7.99385
 Alpha  occ. eigenvalues --   -7.97409  -7.96195  -5.95869  -5.95435  -5.95049
 Alpha  occ. eigenvalues --   -5.93891  -5.93518  -5.93009  -5.92683  -5.92326
 Alpha  occ. eigenvalues --   -5.91770  -0.95889  -0.86599  -0.85318  -0.82633
 Alpha  occ. eigenvalues --   -0.78969  -0.74827  -0.73505  -0.69309  -0.62881
 Alpha  occ. eigenvalues --   -0.60590  -0.58994  -0.56631  -0.53703  -0.50796
 Alpha  occ. eigenvalues --   -0.49676  -0.49097  -0.48648  -0.46013  -0.45460
 Alpha  occ. eigenvalues --   -0.43379  -0.40979  -0.40203  -0.39057  -0.38657
 Alpha  occ. eigenvalues --   -0.36431  -0.36114  -0.34756  -0.32670  -0.32507
 Alpha  occ. eigenvalues --   -0.30097  -0.28922  -0.26539  -0.23657  -0.23126
 Alpha  occ. eigenvalues --   -0.21794
 Alpha virt. eigenvalues --   -0.06012  -0.03984  -0.03343  -0.02312  -0.01780
 Alpha virt. eigenvalues --   -0.00572   0.01507   0.02961   0.05706   0.06122
 Alpha virt. eigenvalues --    0.06799   0.08351   0.08726   0.09460   0.11126

 Mulliken charges:
               1
     1  C   -0.378030
     2  C    0.272931
     3  C   -0.423502
     4  C    0.221316
     5  C   -0.180091
     6  C   -0.181198
     7  C    0.131928
     8  S   -0.012685
     9  C   -0.114760
    10  C   -0.064865
    11  S   -0.072092
    12  C   -0.104451
    13  C   -0.109656
    14  S   -0.123652
    15  H    0.132095
    16  H    0.140523
    17  H    0.148397
    18  H    0.151308
    19  H    0.151046
    20  H    0.140613
    21  H    0.140649
    22  H    0.134178
 Sum of Mulliken charges =  -0.00000

 Dipole moment (field-independent basis, Debye):
    X=             -3.9503    Y=              1.6912    Z=             -0.0556  Tot=              4.2975
 Quadrupole moment (field-independent basis, Debye-Ang):
   XX=           -117.2259   YY=            -94.5785   ZZ=           -105.1144
   XY=              1.9937   XZ=             -7.3806   YZ=              5.6305

  Exact polarizability: 209.312  14.396 175.734  -5.994   6.999 129.527
 Approx polarizability: 359.282  30.517 297.397 -21.813  30.744 263.683

                      1                      2                      3
                      A                      A                      A
 Frequencies --     38.3007                62.6859                73.3771
 Red. masses --      5.8751                10.5782                 4.3011
 Frc consts  --      0.0051                 0.0245                 0.0136
 IR Inten    --      2.7030                 2.0118                 4.4136

                      4                      5                      6
                      A                      A                      A
 Frequencies --     97.7573               134.3319               140.4659
 Red. masses --      7.7887                 2.7272                 4.5194
 Frc consts  --      0.0439                 0.0290                 0.0525
 IR Inten    --      0.4356                 0.4104                 0.7412

                      7                      8                      9
                      A                      A                      A
 Frequencies --    170.5281               216.4397               235.8975
 Red. masses --      6.7445                 5.6393                 6.4011
 Frc consts  --      0.1156                 0.1557                 0.2099
 IR Inten    --      1.1613                 1.6080                 4.4573

                     10                     11                     12
                      A                      A                      A
 Frequencies --    260.8942               296.9619               307.8908
 Red. masses --      7.4009                 5.9630                 5.4339
 Frc consts  --      0.2968                 0.3098                 0.3035
 IR Inten    --      4.6271                 0.9791                 1.2902

                     13                     14                     15
                      A                      A                      A
 Frequencies --    315.6500               369.6191               399.9234
 Red. masses --      8.3232                 2.3779                 4.4505
 Frc consts  --      0.4886                 0.1914                 0.4194
 IR Inten    --     10.2424                 0.3589                 1.1599

                     16                     17                     18
                      A                      A                      A
 Frequencies --    441.2039               444.7609               527.0971
 Red. masses --      5.3906                 6.1879                 7.1994
 Frc consts  --      0.6183                 0.7212                 1.1785
 IR Inten    --      5.9858                 3.0661                 6.8143

                     19                     20                     21
                      A                      A                      A
 Frequencies --    565.3115               579.7205               624.9884
 Red. masses --      6.8570                 7.3757                 5.6035
 Frc consts  --      1.2911                 1.4605                 1.2896
 IR Inten    --      6.8807                 0.0887                 6.5116

                     22                     23                     24
                      A                      A                      A
 Frequencies --    648.4802               659.2953               661.7608
 Red. masses --      3.6608                 6.3837                 4.6905
 Frc consts  --      0.9070                 1.6349                 1.2102
 IR Inten    --      5.1003                11.4680                15.3990

                     25                     26                     27
                      A                      A                      A
 Frequencies --    687.3152               724.4198               746.0153
 Red. masses --      4.8127                 1.6725                 1.3867
 Frc consts  --      1.3395                 0.5171                 0.4547
 IR Inten    --      4.1444                62.9091                13.2215

                     28                     29                     30
                      A                      A                      A
 Frequencies --    775.6096               792.3249               822.0172
 Red. masses --      3.6323                 2.6682                 3.2002
 Frc consts  --      1.2874                 0.9869                 1.2741
 IR Inten    --     25.3445                 0.5590                 7.9581

                     31                     32                     33
                      A                      A                      A
 Frequencies --    844.5426               925.0672               933.8751
 Red. masses --      4.8974                 2.0258                 3.6913
 Frc consts  --      2.0581                 1.0214                 1.8967
 IR Inten    --      8.2827                17.3309                21.2871

                     34                     35                     36
                      A                      A                      A
 Frequencies --    948.0808               949.2122               959.9192
 Red. masses --      1.2477                 1.3796                 2.2965
 Frc consts  --      0.6608                 0.7324                 1.2467
 IR Inten    --      4.5988                31.5355                 3.6854

                     37                     38                     39
                      A                      A                      A
 Frequencies --    963.4960              1149.6946              1200.2748
 Red. masses --      1.1499                 1.7826                 4.9091
 Frc consts  --      0.6289                 1.3883                 4.1669
 IR Inten    --     53.1624                10.5258                29.9900

                     40                     41                     42
                      A                      A                      A
 Frequencies --   1208.7772              1216.0657              1229.5945
 Red. masses --      1.5463                 1.3885                 1.3753
 Frc consts  --      1.3312                 1.2098                 1.2251
 IR Inten    --      6.8935                 1.5903                17.6565

                     43                     44                     45
                      A                      A                      A
 Frequencies --   1263.2928              1306.5011              1331.0403
 Red. masses --      1.6805                 1.1937                 1.2816
 Frc consts  --      1.5802                 1.2005                 1.3377
 IR Inten    --     12.9013                 5.4814                14.1366

                     46                     47                     48
                      A                      A                      A
 Frequencies --   1340.0777              1435.7988              1455.7510
 Red. masses --      1.5547                 1.1590                 1.1171
 Frc consts  --      1.6450                 1.4077                 1.3949
 IR Inten    --      4.5880                 7.3649                10.1574

                     49                     50                     51
                      A                      A                      A
 Frequencies --   1558.1544              1581.0759              1630.4334
 Red. masses --      9.8443                 7.6915                 7.1954
 Frc consts  --     14.0818                11.3284                11.2697
 IR Inten    --     22.3141                13.3841                 2.8694

                     52                     53                     54
                      A                      A                      A
 Frequencies --   1678.6247              3023.4649              3076.6203
 Red. masses --      5.2043                 1.0653                 1.0942
 Frc consts  --      8.6400                 5.7375                 6.1023
 IR Inten    --     25.7249                 3.7670                 2.1632

                     55                     56                     57
                      A                      A                      A
 Frequencies --   3147.4944              3151.2455              3173.0031
 Red. masses --      1.0838                 1.0613                 1.0943
 Frc consts  --      6.3258                 6.2095                 6.4911
 IR Inten    --      5.0708                 1.0610                 7.0734

                     58                     59                     60
                      A                      A                      A
 Frequencies --   3193.4400              3208.1420              3242.0900
 Red. masses --      1.0915                 1.0894                 1.1150
 Frc consts  --      6.5585                 6.6062                 6.9054
 IR Inten    --      2.4971                 2.5983                 1.6355

 - Thermochemistry -
 -------------------
 Temperature   298.150 Kelvin.  Pressure   1.00000 Atm.
 Atom     1 has atomic number  6 and mass  12.00000

 Molecular mass:   235.97882 amu.
 Principal axes and moments of inertia in atomic units:
                           1         2         3
     Eigenvalues --  2783.332333761.654425447.49261
           X            0.99956   0.02847  -0.00847
           Y           -0.02842   0.99958   0.00603
           Z            0.00864  -0.00579   0.99995
 This molecule is an asymmetric top.
 Rotational symmetry number  1.
 Warning -- assumption of classical behavior for rotation
           may cause significant error
 Rotational temperatures (Kelvin)      0.03112     0.02303     0.01590
 Rotational constants (GHZ):           0.64841     0.47977     0.33130
 Zero-point vibrational energy     389659.0 (Joules/Mol)
                                   93.13073 (Kcal/Mol)
 Warning -- explicit consideration of  20 degrees of freedom as
           vibrations may cause significant error
 Vibrational temperatures:     55.11    90.19   105.57   140.65   193.27
          (Kelvin)            202.10   245.35   311.41   339.40   375.37
                              427.26   442.99   454.15   531.80   575.40
                              634.79   639.91   758.38   813.36   834.09
                              899.22   933.02   948.58   952.13   988.89
                             1042.28  1073.35  1115.93  1139.98  1182.70
                             1215.11  1330.97  1343.64  1364.08  1365.70
                             1381.11  1386.26  1654.15  1726.93  1739.16
                             1749.65  1769.11  1817.60  1879.76  1915.07
                             1928.07  2065.79  2094.50  2241.84  2274.82
                             2345.83  2415.17  4350.09  4426.57  4528.54
                             4533.94  4565.24  4594.65  4615.80  4664.64

 Zero-point correction=                           0.148413 (Hartree/Particle)
 Thermal correction to Energy=                    0.162460
 Thermal correction to Enthalpy=                  0.163404
 Thermal correction to Gibbs Free Energy=         0.106773
 Sum of electronic and zero-point Energies=          -1618.133147
 Sum of electronic and thermal Energies=             -1618.119100
 Sum of electronic and thermal Enthalpies=           -1618.118156
 Sum of electronic and thermal Free Energies=        -1618.174787

                     E (Thermal)             CV                S
                      KCal/Mol        Cal/Mol-Kelvin    Cal/Mol-Kelvin
 Total                  101.945             52.279            119.190
 Electronic               0.000              0.000              0.000
 Translational            0.889              2.981             42.277
 Rotational               0.889              2.981             32.411
 Vibrational            100.168             46.317             44.501
 Vibration     1          0.594              1.982              5.345
 Vibration     2          0.597              1.972              4.371
 Vibration     3          0.599              1.967              4.061
 Vibration     4          0.603              1.951              3.499
 Vibration     5          0.613              1.919              2.883
 Vibration     6          0.615              1.913              2.798
 Vibration     7          0.626              1.879              2.430
 Vibration     8          0.645              1.816              1.989
 Vibration     9          0.655              1.786              1.834
 Vibration    10          0.669              1.744              1.656
 Vibration    11          0.691              1.679              1.434
 Vibration    12          0.698              1.659              1.374
 Vibration    13          0.703              1.644              1.333
 Vibration    14          0.742              1.535              1.081
 Vibration    15          0.766              1.470              0.963
 Vibration    16          0.801              1.380              0.823
 Vibration    17          0.804              1.372              0.812
 Vibration    18          0.882              1.190              0.594
 Vibration    19          0.921              1.106              0.513
 Vibration    20          0.936              1.075              0.486

                           ! Non-Optimized Parameters !
 Normal termination of Gaussian 16 at Sat May 20 10:57:44 2023.
