 Gaussian 16, Revision A.03,
 Gaussian 16:  ES64L-G16RevA.03 25-Dec-2016

 -----------------------------
 # opt freq b3lyp/6-31g(2df,p)
 -----------------------------

 -------------------
 Title Card Required
 -------------------
 Symbolic Z-matrix:
 Charge =  0 Multiplicity = 1

 SCF Done:  E(RB3LYP) =  -1298.57748506     A.U. after   16 cycles
 SCF Done:  E(RB3LYP) =  -1298.63088798     A.U. after   12 cycles
 SCF Done:  E(RB3LYP) =  -1298.68744428     A.U. after   13 cycles
 SCF Done:  E(RB3LYP) =  -1298.69482766     A.U. after   12 cycles
 SCF Done:  E(RB3LYP) =  -1298.69535313     A.U. after    8 cycles
 SCF Done:  E(RB3LYP) =  -1298.69683871     A.U. after   11 cycles
 SCF Done:  E(RB3LYP) =  -1298.69725610     A.U. after   10 cycles
 SCF Done:  E(RB3LYP) =  -1298.69785233     A.U. after   11 cycles
 SCF Done:  E(RB3LYP) =  -1298.69898490     A.U. after   13 cycles
 SCF Done:  E(RB3LYP) =  -1298.70132220     A.U. after   13 cycles
 SCF Done:  E(RB3LYP) =  -1298.81546182     A.U. after    9 cycles
 SCF Done:  E(RB3LYP) =  -1298.81547646     A.U. after    8 cycles
 SCF Done:  E(RB3LYP) =  -1298.81548117     A.U. after    8 cycles
 SCF Done:  E(RB3LYP) =  -1298.81548417     A.U. after    8 cycles
 SCF Done:  E(RB3LYP) =  -1298.81548586     A.U. after    8 cycles
 SCF Done:  E(RB3LYP) =  -1298.81548677     A.U. after    7 cycles
 SCF Done:  E(RB3LYP) =  -1298.81548745     A.U. after    7 cycles
 SCF Done:  E(RB3LYP) =  -1298.81548778     A.U. after    7 cycles
 SCF Done:  E(RB3LYP) =  -1298.81548788     A.U. after    6 cycles
 Optimization completed.
    -- Stationary point found.
 Normal termination of Gaussian 16 at Sat May 20 15:45:31 2023.

 ----------------------------------------------------------------------
 #N Geom=AllCheck Guess=TCheck SCRF=Check GenChk RB3LYP/6-31G(2df,p) Fr
 eq
 ----------------------------------------------------------------------

 Structure from the checkpoint file:  "CdC1CdCSCC2dCC2dCCdCCdCS1.chk"
 -------------------
 Title Card Required
 -------------------
 Charge =  0 Multiplicity = 1

                         Standard orientation:
 ---------------------------------------------------------------------
 Center     Atomic      Atomic             Coordinates (Angstroms)
 Number     Number       Type             X           Y           Z
 ---------------------------------------------------------------------
      1          6           0        1.950268   -2.044716   -1.442590
      2          6           0        1.800713   -1.310125   -0.326320
      3          6           0        0.543820   -1.262456    0.436941
      4          6           0       -0.662804   -1.436109   -0.138255
      5         16           0       -2.138878   -1.732663    0.777522
      6          6           0       -3.482853   -0.885965   -0.209678
      7          6           0       -3.264151    0.566082   -0.134055
      8          6           0       -3.248739    1.689479    0.574155
      9          6           0       -2.270978    1.536473   -0.463108
     10          6           0       -1.090650    1.729589   -1.071006
     11          6           0        0.013345    2.404271   -0.435486
     12          6           0        1.249334    1.860236   -0.514939
     13          6           0        2.299130    2.037448    0.455048
     14          6           0        3.145028    1.068383    0.853902
     15         16           0        3.330683   -0.613102    0.322585
     16          1           0        2.868352   -2.022489   -2.016711
     17          1           0        1.167536   -2.716983   -1.777307
     18          1           0        0.618291   -1.108628    1.509276
     19          1           0       -0.753281   -1.526567   -1.217543
     20          1           0       -4.407537   -1.211121    0.271616
     21          1           0       -3.459573   -1.259453   -1.235432
     22          1           0       -3.580089    2.200648    1.463992
     23          1           0       -0.820054    0.992845   -1.823797
     24          1           0       -0.201712    3.166085    0.312367
     25          1           0        1.392497    1.053836   -1.227890
     26          1           0        2.345116    2.980959    0.997708
     27          1           0        3.872790    1.267569    1.634357
 ---------------------------------------------------------------------

 SCF Done:  E(RB3LYP) =  -1298.81548788     A.U. after    1 cycles

 The electronic state is 1-A.
 Alpha  occ. eigenvalues --  -88.90144 -88.87711 -10.25477 -10.24381 -10.23717
 Alpha  occ. eigenvalues --  -10.22647 -10.22445 -10.21994 -10.20316 -10.19526
 Alpha  occ. eigenvalues --  -10.18633 -10.18066 -10.17978 -10.16806 -10.16358
 Alpha  occ. eigenvalues --   -7.96321  -7.93847  -5.92816  -5.92447  -5.91871
 Alpha  occ. eigenvalues --   -5.90340  -5.89931  -5.89465  -0.92629  -0.84257
 Alpha  occ. eigenvalues --   -0.82018  -0.79987  -0.77854  -0.74930  -0.71430
 Alpha  occ. eigenvalues --   -0.68039  -0.66884  -0.60212  -0.59300  -0.56679
 Alpha  occ. eigenvalues --   -0.53773  -0.53247  -0.52605  -0.49219  -0.48321
 Alpha  occ. eigenvalues --   -0.46647  -0.46332  -0.44065  -0.43529  -0.41432
 Alpha  occ. eigenvalues --   -0.40121  -0.39808  -0.37575  -0.36983  -0.36348
 Alpha  occ. eigenvalues --   -0.35254  -0.34674  -0.33540  -0.31608  -0.30723
 Alpha  occ. eigenvalues --   -0.30615  -0.28343  -0.26314  -0.23174  -0.20967
 Alpha  occ. eigenvalues --   -0.16547
 Alpha virt. eigenvalues --   -0.05353  -0.03576  -0.01654   0.03354   0.04000
 Alpha virt. eigenvalues --    0.04866   0.06300   0.07372   0.08115   0.08990
 Alpha virt. eigenvalues --    0.09537   0.10734   0.11794   0.12210   0.13241

 Mulliken charges:
               1
     1  C   -0.385252
     2  C    0.251260
     3  C   -0.128348
     4  C   -0.083536
     5  S   -0.078538
     6  C   -0.359223
     7  C    0.201817
     8  C   -0.270311
     9  C    0.282546
    10  C   -0.295443
    11  C   -0.085170
    12  C   -0.092404
    13  C   -0.094617
    14  C   -0.129897
    15  S   -0.157975
    16  H    0.135806
    17  H    0.116523
    18  H    0.123734
    19  H    0.117724
    20  H    0.157776
    21  H    0.156223
    22  H    0.165316
    23  H    0.074392
    24  H    0.078696
    25  H    0.091584
    26  H    0.091233
    27  H    0.116086
 Sum of Mulliken charges =  -0.00000

 Dipole moment (field-independent basis, Debye):
    X=             -4.3342    Y=             -0.1698    Z=              0.2472  Tot=              4.3446
 Quadrupole moment (field-independent basis, Debye-Ang):
   XX=            -94.7989   YY=           -103.1871   ZZ=            -99.5898
   XY=              0.8534   XZ=             -0.0666   YZ=              9.6209

  Exact polarizability: 276.812 -11.106 175.748  -2.430  17.901 129.672
 Approx polarizability: 486.499 -33.402 295.607   3.524  30.694 240.602

                      1                      2                      3
                      A                      A                      A
 Frequencies --     54.0762                68.8758                82.4570
 Red. masses --      6.6212                 4.3995                 4.0863
 Frc consts  --      0.0114                 0.0123                 0.0164
 IR Inten    --      1.7536                 1.2350                 1.1234

                      4                      5                      6
                      A                      A                      A
 Frequencies --    101.4365               140.3426               147.2180
 Red. masses --      6.8894                 3.6329                 4.9277
 Frc consts  --      0.0418                 0.0422                 0.0629
 IR Inten    --      0.2804                 1.0143                 0.1664

                      7                      8                      9
                      A                      A                      A
 Frequencies --    161.7163               191.7095               210.1468
 Red. masses --      3.6666                 3.6101                 5.2683
 Frc consts  --      0.0565                 0.0782                 0.1371
 IR Inten    --      6.4537                 6.3837                 0.8507

                     10                     11                     12
                      A                      A                      A
 Frequencies --    218.3283               262.9181               297.0844
 Red. masses --      3.3235                 2.5731                 3.9211
 Frc consts  --      0.0933                 0.1048                 0.2039
 IR Inten    --      1.9779                 0.3344                 0.2846

                     13                     14                     15
                      A                      A                      A
 Frequencies --    320.3938               338.5129               391.3703
 Red. masses --      3.4820                 4.4306                 4.0175
 Frc consts  --      0.2106                 0.2991                 0.3626
 IR Inten    --      1.9632                 0.8179                20.7141

                     16                     17                     18
                      A                      A                      A
 Frequencies --    400.4081               425.3853               445.0272
 Red. masses --      3.8382                 4.1017                 3.8410
 Frc consts  --      0.3626                 0.4373                 0.4482
 IR Inten    --      0.1766                 7.7104                13.2866

                     19                     20                     21
                      A                      A                      A
 Frequencies --    471.9260               519.7856               541.0561
 Red. masses --      3.3814                 4.0348                 4.8343
 Frc consts  --      0.4437                 0.6423                 0.8338
 IR Inten    --      1.3456                 9.0119                 4.3709

                     22                     23                     24
                      A                      A                      A
 Frequencies --    558.5906               647.7654               656.5778
 Red. masses --      4.7690                 4.5446                 4.8996
 Frc consts  --      0.8767                 1.1235                 1.2445
 IR Inten    --      1.3562                 5.6016                 1.1635

                     25                     26                     27
                      A                      A                      A
 Frequencies --    673.3560               698.4719               720.3319
 Red. masses --      3.5632                 1.3097                 1.4707
 Frc consts  --      0.9519                 0.3765                 0.4496
 IR Inten    --     40.2688                 2.2135                21.4053

                     28                     29                     30
                      A                      A                      A
 Frequencies --    735.8014               750.4347               804.0740
 Red. masses --      3.1645                 2.0940                 1.9246
 Frc consts  --      1.0094                 0.6948                 0.7332
 IR Inten    --     10.2684                67.1226                37.9736

                     31                     32                     33
                      A                      A                      A
 Frequencies --    838.6371               844.2135               855.9179
 Red. masses --      1.9752                 2.4791                 1.6965
 Frc consts  --      0.8185                 1.0410                 0.7323
 IR Inten    --      5.3019                13.4442                22.5535

                     34                     35                     36
                      A                      A                      A
 Frequencies --    866.4766               895.3069               921.6829
 Red. masses --      1.7715                 2.3341                 1.4707
 Frc consts  --      0.7836                 1.1023                 0.7361
 IR Inten    --     31.5332                19.2048                34.2689

                     37                     38                     39
                      A                      A                      A
 Frequencies --    925.6796               938.8643               973.8271
 Red. masses --      1.9817                 1.2528                 1.3788
 Frc consts  --      1.0005                 0.6506                 0.7704
 IR Inten    --      0.1776                 3.3345                23.8075

                     40                     41                     42
                      A                      A                      A
 Frequencies --    986.1239              1023.1628              1051.4223
 Red. masses --      1.6865                 1.1041                 1.5906
 Frc consts  --      0.9663                 0.6810                 1.0360
 IR Inten    --      4.1973                54.7829                11.3920

                     43                     44                     45
                      A                      A                      A
 Frequencies --   1083.4827              1120.3885              1152.0507
 Red. masses --      2.4614                 2.1309                 1.9566
 Frc consts  --      1.7024                 1.5759                 1.5300
 IR Inten    --      0.5114                17.7554                 8.9336

                     46                     47                     48
                      A                      A                      A
 Frequencies --   1177.3341              1215.2822              1219.8005
 Red. masses --      2.3392                 1.2828                 1.2474
 Frc consts  --      1.9104                 1.1162                 1.0935
 IR Inten    --     12.8312                 4.4417                 1.4046

                     49                     50                     51
                      A                      A                      A
 Frequencies --   1231.3678              1253.4739              1276.4735
 Red. masses --      1.3572                 1.2935                 1.2664
 Frc consts  --      1.2125                 1.1974                 1.2157
 IR Inten    --      0.5222                 8.0311                10.7451

                     52                     53                     54
                      A                      A                      A
 Frequencies --   1313.7029              1330.6759              1360.7072
 Red. masses --      1.3641                 1.4564                 1.3737
 Frc consts  --      1.3870                 1.5194                 1.4986
 IR Inten    --      0.9434                 7.5392                11.8848

                     55                     56                     57
                      A                      A                      A
 Frequencies --   1407.6194              1425.9445              1462.7781
 Red. masses --      1.5989                 1.2520                 1.1042
 Frc consts  --      1.8665                 1.4999                 1.3921
 IR Inten    --     18.9731                 2.6376                 1.8533

                     58                     59                     60
                      A                      A                      A
 Frequencies --   1591.1964              1604.6561              1630.4033
 Red. masses --      5.9943                 6.8662                 4.2570
 Frc consts  --      8.9421                10.4167                 6.6672
 IR Inten    --     39.0565                12.8248                27.6246

                     61                     62                     63
                      A                      A                      A
 Frequencies --   1633.3562              1663.1168              1859.0653
 Red. masses --      6.8672                 5.6384                 8.8597
 Frc consts  --     10.7942                 9.1887                18.0410
 IR Inten    --    182.9934                31.4414               242.8875

                     64                     65                     66
                      A                      A                      A
 Frequencies --   3073.4065              3128.6745              3131.7977
 Red. masses --      1.0570                 1.0845                 1.1076
 Frc consts  --      5.8826                 6.2544                 6.4008
 IR Inten    --     14.2960                12.2745                 0.9757

                     67                     68                     69
                      A                      A                      A
 Frequencies --   3134.6327              3142.3266              3154.4103
 Red. masses --      1.0861                 1.0884                 1.0712
 Frc consts  --      6.2876                 6.3321                 6.2797
 IR Inten    --      4.0407                21.3378                 2.9298

                     70                     71                     72
                      A                      A                      A
 Frequencies --   3158.7184              3170.7352              3176.2435
 Red. masses --      1.0772                 1.0849                 1.0917
 Frc consts  --      6.3323                 6.4265                 6.4888
 IR Inten    --      3.5802                13.5158                12.0729

                     73                     74                     75
                      A                      A                      A
 Frequencies --   3179.3053              3247.6001              3260.7242
 Red. masses --      1.0883                 1.1149                 1.1124
 Frc consts  --      6.4811                 6.9278                 6.9687
 IR Inten    --      3.4544                 2.6657                 3.0247

 - Thermochemistry -
 -------------------
 Temperature   298.150 Kelvin.  Pressure   1.00000 Atm.
 Atom     1 has atomic number  6 and mass  12.00000

 Molecular mass:   232.03804 amu.
 Principal axes and moments of inertia in atomic units:
                           1         2         3
     Eigenvalues --  2382.855305220.834286803.57467
           X            0.99998   0.00656   0.00033
           Y           -0.00656   0.99930   0.03675
           Z           -0.00009  -0.03675   0.99932
 This molecule is an asymmetric top.
 Rotational symmetry number  1.
 Warning -- assumption of classical behavior for rotation
           may cause significant error
 Rotational temperatures (Kelvin)      0.03635     0.01659     0.01273
 Rotational constants (GHZ):           0.75739     0.34568     0.26526
 Zero-point vibrational energy     539087.2 (Joules/Mol)
                                  128.84494 (Kcal/Mol)
 Warning -- explicit consideration of  22 degrees of freedom as
           vibrations may cause significant error
 Vibrational temperatures:     77.80    99.10   118.64   145.94   201.92
          (Kelvin)            211.81   232.67   275.83   302.35   314.13
                              378.28   427.44   460.98   487.04   563.09
                              576.10   612.03   640.29   679.00   747.86
                              778.46   803.69   931.99   944.67   968.81
                             1004.95  1036.40  1058.65  1079.71  1156.88
                             1206.61  1214.63  1231.47  1246.67  1288.15
                             1326.10  1331.85  1350.82  1401.12  1418.81
                             1472.10  1512.76  1558.89  1611.99  1657.54
                             1693.92  1748.52  1755.02  1771.66  1803.47
                             1836.56  1890.13  1914.55  1957.75  2025.25
                             2051.62  2104.61  2289.38  2308.74  2345.79
                             2350.04  2392.85  2674.78  4421.95  4501.46
                             4505.96  4510.04  4521.11  4538.49  4544.69
                             4561.98  4569.91  4574.31  4672.57  4691.45

 Zero-point correction=                           0.205327 (Hartree/Particle)
 Thermal correction to Energy=                    0.220250
 Thermal correction to Enthalpy=                  0.221195
 Thermal correction to Gibbs Free Energy=         0.163431
 Sum of electronic and zero-point Energies=          -1298.610160
 Sum of electronic and thermal Energies=             -1298.595237
 Sum of electronic and thermal Enthalpies=           -1298.594293
 Sum of electronic and thermal Free Energies=        -1298.652057

                     E (Thermal)             CV                S
                      KCal/Mol        Cal/Mol-Kelvin    Cal/Mol-Kelvin
 Total                  138.209             57.218            121.574
 Electronic               0.000              0.000              0.000
 Translational            0.889              2.981             42.227
 Rotational               0.889              2.981             32.804
 Vibrational            136.432             51.256             46.544
 Vibration     1          0.596              1.976              4.662
 Vibration     2          0.598              1.969              4.185
 Vibration     3          0.600              1.961              3.832
 Vibration     4          0.604              1.948              3.427
 Vibration     5          0.615              1.913              2.799
 Vibration     6          0.617              1.906              2.708
 Vibration     7          0.622              1.889              2.530
 Vibration     8          0.634              1.851              2.211
 Vibration     9          0.642              1.825              2.042
 Vibration    10          0.646              1.813              1.973
 Vibration    11          0.670              1.741              1.642
 Vibration    12          0.691              1.679              1.433
 Vibration    13          0.706              1.635              1.308
 Vibration    14          0.719              1.599              1.219
 Vibration    15          0.759              1.489              0.995
 Vibration    16          0.766              1.469              0.961
 Vibration    17          0.787              1.415              0.874
 Vibration    18          0.804              1.372              0.811
 Vibration    19          0.829              1.312              0.732
 Vibration    20          0.875              1.206              0.610
 Vibration    21          0.896              1.159              0.563
 Vibration    22          0.914              1.121              0.527

                           ! Non-Optimized Parameters !
 Normal termination of Gaussian 16 at Sat May 20 17:48:53 2023.
