 Gaussian 16, Revision A.03,
 Gaussian 16:  ES64L-G16RevA.03 25-Dec-2016

 -----------------------------
 # opt freq b3lyp/6-31g(2df,p)
 -----------------------------

 -------------------
 Title Card Required
 -------------------
 Symbolic Z-matrix:
 Charge =  0 Multiplicity = 1

 SCF Done:  E(RB3LYP) =  -557.630775394     A.U. after   18 cycles
 SCF Done:  E(RB3LYP) =  -557.710507313     A.U. after   14 cycles
 SCF Done:  E(RB3LYP) =  -557.781283913     A.U. after   14 cycles
 SCF Done:  E(RB3LYP) =  -557.825176130     A.U. after   14 cycles
 SCF Done:  E(RB3LYP) =  -557.846562779     A.U. after   14 cycles
 SCF Done:  E(RB3LYP) =  -557.855239427     A.U. after   13 cycles
 SCF Done:  E(RB3LYP) =  -557.859453684     A.U. after   12 cycles
 SCF Done:  E(RB3LYP) =  -557.861440684     A.U. after   12 cycles
 SCF Done:  E(RB3LYP) =  -557.862010024     A.U. after   12 cycles
 SCF Done:  E(RB3LYP) =  -557.862181947     A.U. after   12 cycles
 SCF Done:  E(RB3LYP) =  -557.862306706     A.U. after   11 cycles
 SCF Done:  E(RB3LYP) =  -557.862377384     A.U. after   12 cycles
 SCF Done:  E(RB3LYP) =  -557.862407299     A.U. after   10 cycles
 SCF Done:  E(RB3LYP) =  -557.862415673     A.U. after    9 cycles
 SCF Done:  E(RB3LYP) =  -557.862418273     A.U. after    8 cycles
 SCF Done:  E(RB3LYP) =  -557.862418699     A.U. after    7 cycles
 SCF Done:  E(RB3LYP) =  -557.862418824     A.U. after    7 cycles
 Optimization completed.
    -- Stationary point found.
 Normal termination of Gaussian 16 at Sat May 20 12:25:22 2023.

 ----------------------------------------------------------------------
 #N Geom=AllCheck Guess=TCheck SCRF=Check GenChk RB3LYP/6-31G(2df,p) Fr
 eq
 ----------------------------------------------------------------------

 Structure from the checkpoint file:  "CdC1Cdc2ccccc2dCCdCNC1.chk"
 -------------------
 Title Card Required
 -------------------
 Charge =  0 Multiplicity = 1

                         Standard orientation:
 ---------------------------------------------------------------------
 Center     Atomic      Atomic             Coordinates (Angstroms)
 Number     Number       Type             X           Y           Z
 ---------------------------------------------------------------------
      1          6           0        2.415851    2.259965   -0.541878
      2          6           0        1.714981    1.276118    0.053904
      3          6           0        0.234393    1.377391   -0.010263
      4          6           0       -0.938564    0.632465   -0.051567
      5          6           0       -2.137977    1.472419   -0.009845
      6          6           0       -3.395004    1.000357    0.147722
      7          6           0       -3.638652   -0.411181    0.253033
      8          6           0       -2.601799   -1.266035    0.116450
      9          6           0       -1.239431   -0.831642   -0.126430
     10          6           0       -0.322896   -1.810151   -0.426719
     11          6           0        1.021711   -1.440184   -0.707006
     12          6           0        2.133660   -1.870152   -0.078937
     13          7           0        3.095619   -0.898960    0.185527
     14          6           0        2.524503    0.283416    0.894958
     15          1           0        1.931707    3.040029   -1.120023
     16          1           0        3.497931    2.300993   -0.482105
     17          1           0       -0.004156    2.436549   -0.089932
     18          1           0       -1.982434    2.545216   -0.066074
     19          1           0       -4.228390    1.693104    0.205415
     20          1           0       -4.646576   -0.777600    0.413814
     21          1           0       -2.766781   -2.339143    0.150664
     22          1           0       -0.625082   -2.852448   -0.345009
     23          1           0        1.118666   -0.465434   -1.167994
     24          1           0        2.227270   -2.848083    0.393996
     25          1           0        3.900947   -1.252371    0.683533
     26          1           0        3.376801    0.831614    1.306221
     27          1           0        1.906110   -0.056436    1.738270
 ---------------------------------------------------------------------

 SCF Done:  E(RB3LYP) =  -557.862418824     A.U. after    1 cycles

 The electronic state is 1-A.
 Alpha  occ. eigenvalues --  -14.34220 -10.22195 -10.21781 -10.20143 -10.19962
 Alpha  occ. eigenvalues --  -10.19113 -10.19023 -10.18558 -10.17722 -10.17554
 Alpha  occ. eigenvalues --  -10.17477 -10.17317 -10.17304 -10.16750  -0.93040
 Alpha  occ. eigenvalues --   -0.84905  -0.80537  -0.79232  -0.75614  -0.73360
 Alpha  occ. eigenvalues --   -0.69447  -0.66570  -0.63140  -0.59078  -0.58292
 Alpha  occ. eigenvalues --   -0.55194  -0.52396  -0.50892  -0.48931  -0.47850
 Alpha  occ. eigenvalues --   -0.46179  -0.44719  -0.43336  -0.41672  -0.41087
 Alpha  occ. eigenvalues --   -0.40658  -0.39203  -0.38697  -0.37183  -0.35947
 Alpha  occ. eigenvalues --   -0.34529  -0.33774  -0.32267  -0.30509  -0.29220
 Alpha  occ. eigenvalues --   -0.27211  -0.24941  -0.21673  -0.16283
 Alpha virt. eigenvalues --   -0.06447  -0.01215   0.01533   0.05096   0.06073
 Alpha virt. eigenvalues --    0.08832   0.10435   0.11393   0.12821   0.14167
 Alpha virt. eigenvalues --    0.14271   0.16097   0.16763   0.17053   0.17576

 Mulliken charges:
               1
     1  C   -0.389255
     2  C    0.272664
     3  C   -0.194416
     4  C    0.150276
     5  C   -0.113224
     6  C   -0.136932
     7  C   -0.143613
     8  C   -0.133859
     9  C    0.185213
    10  C   -0.187085
    11  C   -0.134515
    12  C   -0.060688
    13  N   -0.276260
    14  C   -0.265714
    15  H    0.106854
    16  H    0.107721
    17  H    0.090276
    18  H    0.089993
    19  H    0.090823
    20  H    0.091341
    21  H    0.087340
    22  H    0.092416
    23  H    0.128520
    24  H    0.093921
    25  H    0.232922
    26  H    0.111098
    27  H    0.104182
 Sum of Mulliken charges =  -0.00000

 Dipole moment (field-independent basis, Debye):
    X=              1.5293    Y=             -0.7694    Z=              1.4434  Tot=              2.2393
 Quadrupole moment (field-independent basis, Debye-Ang):
   XX=            -72.7586   YY=            -75.4107   ZZ=            -85.4534
   XY=             -2.1138   XZ=              4.6659   YZ=             -2.8657

  Exact polarizability: 250.671   6.488 181.453  -3.765  -6.668  74.842
 Approx polarizability: 435.930  17.321 356.818 -11.425  -5.822 129.037

                      1                      2                      3
                      A                      A                      A
 Frequencies --     51.4276                91.1682               132.8872
 Red. masses --      3.6170                 3.9305                 3.7848
 Frc consts  --      0.0056                 0.0192                 0.0394
 IR Inten    --      0.0436                 1.4836                 1.8415

                      4                      5                      6
                      A                      A                      A
 Frequencies --    169.0899               227.6154               253.0619
 Red. masses --      2.6390                 3.7931                 3.6420
 Frc consts  --      0.0445                 0.1158                 0.1374
 IR Inten    --      5.8972                 3.8762                29.0329

                      7                      8                      9
                      A                      A                      A
 Frequencies --    274.6193               292.7183               334.5841
 Red. masses --      2.9574                 3.7673                 4.1554
 Frc consts  --      0.1314                 0.1902                 0.2741
 IR Inten    --     11.4418                 4.5100                 1.7508

                     10                     11                     12
                      A                      A                      A
 Frequencies --    361.9386               424.9380               435.5554
 Red. masses --      3.0547                 2.5853                 2.9395
 Frc consts  --      0.2358                 0.2751                 0.3286
 IR Inten    --     20.2845                15.9068                 4.2576

                     13                     14                     15
                      A                      A                      A
 Frequencies --    458.8540               507.2755               532.9835
 Red. masses --      3.2298                 3.1460                 3.0764
 Frc consts  --      0.4007                 0.4770                 0.5149
 IR Inten    --      4.1875                 1.5358                12.8586

                     16                     17                     18
                      A                      A                      A
 Frequencies --    556.1999               589.0251               612.5097
 Red. masses --      2.7935                 3.3590                 4.3537
 Frc consts  --      0.5092                 0.6866                 0.9623
 IR Inten    --     19.3990                 3.6214                 7.3267

                     19                     20                     21
                      A                      A                      A
 Frequencies --    632.0580               677.0266               708.4591
 Red. masses --      5.8924                 1.2770                 2.0819
 Frc consts  --      1.3869                 0.3449                 0.6156
 IR Inten    --      8.2526                50.3543                 4.7068

                     22                     23                     24
                      A                      A                      A
 Frequencies --    744.9962               755.8664               791.7854
 Red. masses --      1.5143                 2.3814                 2.1955
 Frc consts  --      0.4952                 0.8016                 0.8109
 IR Inten    --     15.2234                 6.9376                15.6868

                     25                     26                     27
                      A                      A                      A
 Frequencies --    821.7129               846.5951               855.3456
 Red. masses --      1.3949                 2.7027                 1.7001
 Frc consts  --      0.5549                 1.1413                 0.7329
 IR Inten    --      2.4101                74.9026                69.2415

                     28                     29                     30
                      A                      A                      A
 Frequencies --    881.0138               886.3378               908.6265
 Red. masses --      1.7691                 1.7927                 3.4520
 Frc consts  --      0.8090                 0.8298                 1.6792
 IR Inten    --      4.2355                 8.1179                 5.1812

                     31                     32                     33
                      A                      A                      A
 Frequencies --    922.3560               950.5107               964.6666
 Red. masses --      1.6158                 1.3268                 2.7641
 Frc consts  --      0.8099                 0.7063                 1.5155
 IR Inten    --     25.7252                 0.6351                 5.7181

                     34                     35                     36
                      A                      A                      A
 Frequencies --    972.2572              1001.7385              1016.8833
 Red. masses --      1.3629                 2.3736                 1.8230
 Frc consts  --      0.7591                 1.4033                 1.1107
 IR Inten    --      0.7384                 0.0413                 0.5475

                     37                     38                     39
                      A                      A                      A
 Frequencies --   1033.8382              1044.0042              1128.9934
 Red. masses --      2.0687                 1.2081                 2.7250
 Frc consts  --      1.3027                 0.7758                 2.0464
 IR Inten    --      3.4532                28.0981                 8.1492

                     40                     41                     42
                      A                      A                      A
 Frequencies --   1145.9019              1166.1748              1207.1973
 Red. masses --      2.5211                 1.8676                 1.2049
 Frc consts  --      1.9504                 1.4964                 1.0346
 IR Inten    --     17.9510                31.5754                12.2287

                     43                     44                     45
                      A                      A                      A
 Frequencies --   1225.7141              1238.4782              1252.5720
 Red. masses --      1.5900                 1.6805                 1.8215
 Frc consts  --      1.4075                 1.5186                 1.6837
 IR Inten    --      5.7954                11.1002                 8.3794

                     46                     47                     48
                      A                      A                      A
 Frequencies --   1301.4575              1307.1361              1330.3722
 Red. masses --      1.3411                 1.3984                 1.3538
 Frc consts  --      1.3384                 1.4077                 1.4117
 IR Inten    --      4.3239                16.5154                 9.1995

                     49                     50                     51
                      A                      A                      A
 Frequencies --   1356.7226              1377.3130              1410.8689
 Red. masses --      1.7774                 1.4906                 1.5457
 Frc consts  --      1.9276                 1.6660                 1.8128
 IR Inten    --     16.9499                 4.8350                 3.6038

                     52                     53                     54
                      A                      A                      A
 Frequencies --   1425.9883              1460.0009              1484.2968
 Red. masses --      1.2786                 2.2254                 1.6885
 Frc consts  --      1.5319                 2.7948                 2.1917
 IR Inten    --      0.7482                15.7160                 8.9457

                     55                     56                     57
                      A                      A                      A
 Frequencies --   1487.8641              1491.3576              1513.1466
 Red. masses --      1.1140                 1.4646                 2.1452
 Frc consts  --      1.4530                 1.9192                 2.8939
 IR Inten    --      8.7842                 6.0592                14.4620

                     58                     59                     60
                      A                      A                      A
 Frequencies --   1575.9618              1585.2432              1640.0229
 Red. masses --      4.8230                 6.2568                 3.7259
 Frc consts  --      7.0577                 9.2639                 5.9044
 IR Inten    --     27.1924                 1.1397                20.5191

                     61                     62                     63
                      A                      A                      A
 Frequencies --   1675.0987              1692.8346              2997.1010
 Red. masses --      5.1578                 5.1129                 1.0674
 Frc consts  --      8.5270                 8.6326                 5.6493
 IR Inten    --     56.8441                43.5160                41.6252

                     64                     65                     66
                      A                      A                      A
 Frequencies --   3083.3359              3115.6142              3118.8682
 Red. masses --      1.0954                 1.0904                 1.0833
 Frc consts  --      6.1356                 6.2363                 6.2085
 IR Inten    --     22.6104                27.6667                 6.4344

                     67                     68                     69
                      A                      A                      A
 Frequencies --   3141.4041              3148.0536              3160.3012
 Red. masses --      1.0879                 1.0599                 1.0842
 Frc consts  --      6.3251                 6.1888                 6.3797
 IR Inten    --      9.0323                 4.1452                 4.9220

                     70                     71                     72
                      A                      A                      A
 Frequencies --   3164.6569              3181.6479              3193.4450
 Red. masses --      1.0858                 1.0934                 1.0829
 Frc consts  --      6.4070                 6.5212                 6.5064
 IR Inten    --      1.0198                35.9622                10.8631

                     73                     74                     75
                      A                      A                      A
 Frequencies --   3196.0581              3230.9175              3580.3564
 Red. masses --      1.0974                 1.1152                 1.0754
 Frc consts  --      6.6045                 6.8591                 8.1222
 IR Inten    --     31.1408                 8.4966                14.9457

 - Thermochemistry -
 -------------------
 Temperature   298.150 Kelvin.  Pressure   1.00000 Atm.
 Atom     1 has atomic number  6 and mass  12.00000

 Molecular mass:   183.10480 amu.
 Principal axes and moments of inertia in atomic units:
                           1         2         3
     Eigenvalues --  1361.900043513.495344647.75960
           X            0.99996   0.00762   0.00347
           Y           -0.00757   0.99987  -0.01454
           Z           -0.00358   0.01451   0.99989
 This molecule is an asymmetric top.
 Rotational symmetry number  1.
 Warning -- assumption of classical behavior for rotation
           may cause significant error
 Rotational temperatures (Kelvin)      0.06360     0.02465     0.01864
 Rotational constants (GHZ):           1.32516     0.51366     0.38830
 Zero-point vibrational energy     589250.6 (Joules/Mol)
                                  140.83427 (Kcal/Mol)
 Warning -- explicit consideration of  18 degrees of freedom as
           vibrations may cause significant error
 Vibrational temperatures:     73.99   131.17   191.20   243.28   327.49
          (Kelvin)            364.10   395.12   421.16   481.39   520.75
                              611.39   626.67   660.19   729.86   766.84
                              800.25   847.48   881.26   909.39   974.09
                             1019.31  1071.88  1087.52  1139.20  1182.26
                             1218.06  1230.65  1267.58  1275.24  1307.31
                             1327.06  1367.57  1387.94  1398.86  1441.28
                             1463.07  1487.46  1502.09  1624.37  1648.70
                             1677.87  1736.89  1763.53  1781.89  1802.17
                             1872.51  1880.68  1914.11  1952.02  1981.65
                             2029.93  2051.68  2100.62  2135.57  2140.70
                             2145.73  2177.08  2267.46  2280.81  2359.63
                             2410.09  2435.61  4312.16  4436.23  4482.67
                             4487.36  4519.78  4529.35  4546.97  4553.24
                             4577.68  4594.66  4598.41  4648.57  5151.33

 Zero-point correction=                           0.224434 (Hartree/Particle)
 Thermal correction to Energy=                    0.236037
 Thermal correction to Enthalpy=                  0.236981
 Thermal correction to Gibbs Free Energy=         0.187133
 Sum of electronic and zero-point Energies=           -557.637985
 Sum of electronic and thermal Energies=              -557.626382
 Sum of electronic and thermal Enthalpies=            -557.625438
 Sum of electronic and thermal Free Energies=         -557.675286

                     E (Thermal)             CV                S
                      KCal/Mol        Cal/Mol-Kelvin    Cal/Mol-Kelvin
 Total                  148.115             47.741            104.913
 Electronic               0.000              0.000              0.000
 Translational            0.889              2.981             41.521
 Rotational               0.889              2.981             31.476
 Vibrational            146.338             41.780             31.917
 Vibration     1          0.596              1.977              4.762
 Vibration     2          0.602              1.955              3.635
 Vibration     3          0.613              1.920              2.904
 Vibration     4          0.625              1.881              2.446
 Vibration     5          0.651              1.799              1.898
 Vibration     6          0.664              1.758              1.709
 Vibration     7          0.677              1.720              1.567
 Vibration     8          0.688              1.687              1.458
 Vibration     9          0.716              1.606              1.238
 Vibration    10          0.736              1.551              1.114
 Vibration    11          0.787              1.416              0.875
 Vibration    12          0.796              1.393              0.841
 Vibration    13          0.817              1.341              0.769
 Vibration    14          0.862              1.234              0.640
 Vibration    15          0.888              1.177              0.581
 Vibration    16          0.912              1.126              0.531
 Vibration    17          0.946              1.055              0.469
 Vibration    18          0.972              1.005              0.429

                           ! Non-Optimized Parameters !
 Normal termination of Gaussian 16 at Sat May 20 14:00:57 2023.
