 Gaussian 16, Revision A.03,
 Gaussian 16:  ES64L-G16RevA.03 25-Dec-2016

 -----------------------------
 # opt freq b3lyp/6-31g(2df,p)
 -----------------------------

 -------------------
 Title Card Required
 -------------------
 Symbolic Z-matrix:
 Charge =  0 Multiplicity = 1

 SCF Done:  E(RB3LYP) =  -1228.24689758     A.U. after   15 cycles
 SCF Done:  E(RB3LYP) =  -1228.25730489     A.U. after   15 cycles
 SCF Done:  E(RB3LYP) =  -1228.26896262     A.U. after   13 cycles
 SCF Done:  E(RB3LYP) =  -1228.27621848     A.U. after   13 cycles
 SCF Done:  E(RB3LYP) =  -1228.28126272     A.U. after   13 cycles
 SCF Done:  E(RB3LYP) =  -1228.28490087     A.U. after   12 cycles
 SCF Done:  E(RB3LYP) =  -1228.28874447     A.U. after   13 cycles
 SCF Done:  E(RB3LYP) =  -1228.28993231     A.U. after   12 cycles
 SCF Done:  E(RB3LYP) =  -1228.29071884     A.U. after   12 cycles
 SCF Done:  E(RB3LYP) =  -1228.29101868     A.U. after   11 cycles
 SCF Done:  E(RB3LYP) =  -1228.29222402     A.U. after   12 cycles
 SCF Done:  E(RB3LYP) =  -1228.29231935     A.U. after   12 cycles
 SCF Done:  E(RB3LYP) =  -1228.29232054     A.U. after   12 cycles
 SCF Done:  E(RB3LYP) =  -1228.29236391     A.U. after   11 cycles
 SCF Done:  E(RB3LYP) =  -1228.29236705     A.U. after    8 cycles
 SCF Done:  E(RB3LYP) =  -1228.29239110     A.U. after   10 cycles
 SCF Done:  E(RB3LYP) =  -1228.29239541     A.U. after    9 cycles
 SCF Done:  E(RB3LYP) =  -1228.29239587     A.U. after    9 cycles
 SCF Done:  E(RB3LYP) =  -1228.29239626     A.U. after    8 cycles
 Optimization completed.
    -- Stationary point found.
 Normal termination of Gaussian 16 at Thu May 18 21:13:09 2023.

 ----------------------------------------------------------------------
 #N Geom=AllCheck Guess=TCheck SCRF=Check GenChk RB3LYP/6-31G(2df,p) Fr
 eq
 ----------------------------------------------------------------------

 Structure from the checkpoint file:  "CdC1c2sccc2CdCqNC2dNNCqdOrCN2rN1N.chk"
 -------------------
 Title Card Required
 -------------------
 Charge =  0 Multiplicity = 1

                         Standard orientation:
 ---------------------------------------------------------------------
 Center     Atomic      Atomic             Coordinates (Angstroms)
 Number     Number       Type             X           Y           Z
 ---------------------------------------------------------------------
      1          6           0       -2.227403    2.609434    0.101613
      2          6           0       -1.886363    1.327788   -0.119912
      3          6           0       -2.747505    0.181457    0.123648
      4         16           0       -4.381018    0.282689    0.695221
      5          6           0       -4.554425   -1.439208    0.648028
      6          6           0       -3.421568   -2.057682    0.213866
      7          6           0       -2.375922   -1.132959   -0.094925
      8          6           0       -1.045102   -1.411802   -0.563570
      9          6           0       -0.221468   -0.372841   -0.837736
     10          7           0        1.068908   -0.551900   -1.373543
     11          6           0        2.246381   -0.384020   -0.643298
     12          7           0        3.329476   -0.856337   -1.151484
     13          7           0        4.488264   -0.569414   -0.430429
     14          6           0        4.583529   -0.105916    0.842080
     15          8           0        5.637865    0.049750    1.427808
     16          6           0        3.240571    0.170454    1.509459
     17          7           0        2.170107    0.342005    0.526243
     18          7           0       -0.614134    0.957815   -0.652155
     19          7           0        0.152851    2.015535   -1.181592
     20          1           0       -3.206205    2.842299    0.498379
     21          1           0       -1.559140    3.422027   -0.132976
     22          1           0       -5.490020   -1.888447    0.945046
     23          1           0       -3.322953   -3.131105    0.110913
     24          1           0       -0.683822   -2.426211   -0.668802
     25          1           0        1.158824   -1.278435   -2.067714
     26          1           0        5.340274   -0.853068   -0.888888
     27          1           0        3.346900    1.078991    2.106072
     28          1           0        3.039224   -0.660715    2.202306
     29          1           0        1.242499    0.419025    0.922548
     30          1           0        0.389798    1.792158   -2.144121
     31          1           0        1.025329    2.090296   -0.663558
 ---------------------------------------------------------------------

 SCF Done:  E(RB3LYP) =  -1228.29239626     A.U. after    1 cycles

 The electronic state is 1-A.
 Alpha  occ. eigenvalues --  -88.91011 -19.10672 -14.40663 -14.38627 -14.37842
 Alpha  occ. eigenvalues --  -14.37793 -14.36498 -14.34555 -10.30033 -10.28706
 Alpha  occ. eigenvalues --  -10.27479 -10.24356 -10.23275 -10.21822 -10.21679
 Alpha  occ. eigenvalues --  -10.20390 -10.19621 -10.19127 -10.14999  -7.97152
 Alpha  occ. eigenvalues --   -5.93549  -5.93188  -5.92932  -1.05527  -1.03386
 Alpha  occ. eigenvalues --   -1.01199  -0.96058  -0.93115  -0.89499  -0.85043
 Alpha  occ. eigenvalues --   -0.83018  -0.78973  -0.75596  -0.73944  -0.72836
 Alpha  occ. eigenvalues --   -0.69413  -0.65940  -0.63234  -0.60873  -0.59073
 Alpha  occ. eigenvalues --   -0.57251  -0.55774  -0.54674  -0.53180  -0.52213
 Alpha  occ. eigenvalues --   -0.51511  -0.50156  -0.49510  -0.47622  -0.46715
 Alpha  occ. eigenvalues --   -0.44532  -0.44280  -0.42482  -0.41576  -0.41142
 Alpha  occ. eigenvalues --   -0.40685  -0.40533  -0.39669  -0.38573  -0.36953
 Alpha  occ. eigenvalues --   -0.36175  -0.34297  -0.32599  -0.31753  -0.30164
 Alpha  occ. eigenvalues --   -0.28651  -0.28175  -0.26513  -0.25175  -0.23901
 Alpha  occ. eigenvalues --   -0.20749  -0.17531
 Alpha virt. eigenvalues --   -0.03816  -0.00856   0.00998   0.02632   0.05002
 Alpha virt. eigenvalues --    0.05219   0.06479   0.08157   0.08555   0.09859
 Alpha virt. eigenvalues --    0.10795   0.11020   0.12361   0.12799   0.13514

 Mulliken charges:
               1
     1  C   -0.460072
     2  C    0.342149
     3  C    0.016903
     4  S   -0.030032
     5  C   -0.172784
     6  C   -0.171922
     7  C    0.272581
     8  C   -0.420870
     9  C    0.359071
    10  N   -0.416023
    11  C    0.466689
    12  N   -0.347061
    13  N   -0.285649
    14  C    0.431847
    15  O   -0.375835
    16  C   -0.288042
    17  N   -0.380960
    18  N   -0.269676
    19  N   -0.449529
    20  H    0.108292
    21  H    0.116945
    22  H    0.134680
    23  H    0.109443
    24  H    0.102584
    25  H    0.270470
    26  H    0.267272
    27  H    0.151235
    28  H    0.136769
    29  H    0.268974
    30  H    0.257314
    31  H    0.255239
 Sum of Mulliken charges =  -0.00000

 Dipole moment (field-independent basis, Debye):
    X=             -2.1553    Y=             -2.2623    Z=             -1.0672  Tot=              3.3018
 Quadrupole moment (field-independent basis, Debye-Ang):
   XX=           -137.4428   YY=           -112.5345   ZZ=           -114.6332
   XY=              6.2699   XZ=            -10.3578   YZ=              0.4183

  Exact polarizability: 263.645   2.967 180.412 -17.876   9.520 119.447
 Approx polarizability: 363.934  -3.849 340.547 -35.420  27.105 206.775

                      1                      2                      3
                      A                      A                      A
 Frequencies --     25.7839                38.7236                45.6295
 Red. masses --      6.9735                 4.3369                 6.3205
 Frc consts  --      0.0027                 0.0038                 0.0078
 IR Inten    --      0.7418                 1.8806                 1.2743

                      4                      5                      6
                      A                      A                      A
 Frequencies --     78.6721                92.4820               109.1390
 Red. masses --      6.6322                 4.2581                 3.5514
 Frc consts  --      0.0242                 0.0215                 0.0249
 IR Inten    --      0.3115                 2.6860                 3.1445

                      7                      8                      9
                      A                      A                      A
 Frequencies --    141.8667               169.3717               213.3576
 Red. masses --      6.4735                 5.1282                 1.8405
 Frc consts  --      0.0768                 0.0867                 0.0494
 IR Inten    --      1.9545                 3.1528                27.4898

                     10                     11                     12
                      A                      A                      A
 Frequencies --    237.2622               253.5379               257.2554
 Red. masses --      2.0145                 6.1498                 5.4944
 Frc consts  --      0.0668                 0.2329                 0.2142
 IR Inten    --     18.0935                 0.8709                 0.5078

                     13                     14                     15
                      A                      A                      A
 Frequencies --    282.3892               308.2526               363.5025
 Red. masses --      5.5051                 5.4732                 3.7050
 Frc consts  --      0.2587                 0.3064                 0.2884
 IR Inten    --      8.3249                 0.5300                 8.8712

                     16                     17                     18
                      A                      A                      A
 Frequencies --    403.0706               420.3117               437.1967
 Red. masses --      3.8754                 4.4268                 5.1838
 Frc consts  --      0.3710                 0.4608                 0.5838
 IR Inten    --      2.2524                10.4019                10.1214

                     19                     20                     21
                      A                      A                      A
 Frequencies --    451.1306               464.2735               468.1661
 Red. masses --      2.7211                 4.6008                 3.8122
 Frc consts  --      0.3263                 0.5843                 0.4923
 IR Inten    --     81.1966                 2.1375                14.5742

                     22                     23                     24
                      A                      A                      A
 Frequencies --    498.9826               535.2290               551.0911
 Red. masses --      1.8507                 2.8214                 1.5241
 Frc consts  --      0.2715                 0.4762                 0.2727
 IR Inten    --     28.7329                65.8838                 7.7804

                     25                     26                     27
                      A                      A                      A
 Frequencies --    586.7261               615.2097               627.0083
 Red. masses --      4.8443                 4.1784                 2.7046
 Frc consts  --      0.9825                 0.9318                 0.6265
 IR Inten    --      8.9972                 3.6247                19.5022

                     28                     29                     30
                      A                      A                      A
 Frequencies --    630.4467               639.5373               658.4665
 Red. masses --      3.6397                 2.3092                 3.6043
 Frc consts  --      0.8523                 0.5565                 0.9207
 IR Inten    --     17.8158                47.4270                18.4628

                     31                     32                     33
                      A                      A                      A
 Frequencies --    667.3104               687.7537               694.1728
 Red. masses --      1.2014                 6.5148                 1.6670
 Frc consts  --      0.3152                 1.8156                 0.4733
 IR Inten    --     13.6692                23.1973                27.7125

                     34                     35                     36
                      A                      A                      A
 Frequencies --    711.1535               732.7260               759.1960
 Red. masses --      6.4693                 1.6176                 2.4461
 Frc consts  --      1.9277                 0.5117                 0.8307
 IR Inten    --     14.3257                20.4640                 5.7933

                     37                     38                     39
                      A                      A                      A
 Frequencies --    780.4776               785.1011               797.9879
 Red. masses --      3.3311                 1.6859                 3.3561
 Frc consts  --      1.1955                 0.6123                 1.2591
 IR Inten    --      2.1520                52.1983                 5.7132

                     40                     41                     42
                      A                      A                      A
 Frequencies --    807.8140               836.0017               850.3545
 Red. masses --      3.6788                 4.1792                 4.1954
 Frc consts  --      1.4144                 1.7209                 1.7874
 IR Inten    --     14.9450                11.6657                42.6076

                     43                     44                     45
                      A                      A                      A
 Frequencies --    892.4301               928.0875               981.5789
 Red. masses --      1.3211                 1.5208                 2.8389
 Frc consts  --      0.6199                 0.7718                 1.6116
 IR Inten    --      2.8793               127.4710                33.0109

                     46                     47                     48
                      A                      A                      A
 Frequencies --   1028.1258              1038.7965              1064.9436
 Red. masses --      2.1170                 2.8028                 1.8493
 Frc consts  --      1.3185                 1.7820                 1.2357
 IR Inten    --     21.9854                48.1550                 6.1055

                     49                     50                     51
                      A                      A                      A
 Frequencies --   1094.5346              1111.5565              1131.5489
 Red. masses --      3.7427                 3.3399                 1.6399
 Frc consts  --      2.6418                 2.4313                 1.2371
 IR Inten    --     13.2729                28.2793                13.5894

                     52                     53                     54
                      A                      A                      A
 Frequencies --   1182.5689              1195.6378              1238.0502
 Red. masses --      2.1901                 2.3173                 1.1376
 Frc consts  --      1.8045                 1.9518                 1.0273
 IR Inten    --     11.0736                46.7569                 1.4129

                     55                     56                     57
                      A                      A                      A
 Frequencies --   1245.8756              1291.8285              1319.3565
 Red. masses --      2.9540                 1.8518                 1.5461
 Frc consts  --      2.7015                 1.8208                 1.5856
 IR Inten    --      9.7286                11.4002                30.7924

                     58                     59                     60
                      A                      A                      A
 Frequencies --   1333.3454              1342.6662              1350.4704
 Red. masses --      2.0074                 3.4056                 1.4547
 Frc consts  --      2.1026                 3.6172                 1.5631
 IR Inten    --      6.8993                18.3990                12.6423

                     61                     62                     63
                      A                      A                      A
 Frequencies --   1380.8180              1391.1952              1404.8718
 Red. masses --      3.6067                 2.7176                 2.6468
 Frc consts  --      4.0517                 3.0990                 3.0778
 IR Inten    --    183.4111                99.8070                54.8357

                     64                     65                     66
                      A                      A                      A
 Frequencies --   1421.6199              1445.2936              1474.1061
 Red. masses --      1.4221                 1.6463                 2.7679
 Frc consts  --      1.6933                 2.0261                 3.5437
 IR Inten    --      2.1148                17.0376                13.5507

                     67                     68                     69
                      A                      A                      A
 Frequencies --   1485.3532              1495.5199              1556.3647
 Red. masses --      4.2119                 1.1550                 2.0565
 Frc consts  --      5.4751                 1.5220                 2.9350
 IR Inten    --      3.3951                49.3678               129.7477

                     70                     71                     72
                      A                      A                      A
 Frequencies --   1562.5443              1642.9617              1678.8130
 Red. masses --      4.8641                 4.2147                 5.9255
 Frc consts  --      6.9970                 6.7030                 9.8397
 IR Inten    --     16.9004               175.8332               142.8458

                     73                     74                     75
                      A                      A                      A
 Frequencies --   1703.2755              1729.0397              1798.8714
 Red. masses --      1.2333                 6.4220                10.0216
 Frc consts  --      2.1080                11.3119                19.1068
 IR Inten    --     43.9608               503.7530               347.1647

                     76                     77                     78
                      A                      A                      A
 Frequencies --   2992.1990              3103.1670              3191.7053
 Red. masses --      1.0713                 1.0912                 1.0609
 Frc consts  --      5.6512                 6.1910                 6.3673
 IR Inten    --     38.8563                 9.4406                 4.3313

                     79                     80                     81
                      A                      A                      A
 Frequencies --   3208.7715              3212.1214              3256.2974
 Red. masses --      1.0903                 1.0913                 1.0973
 Frc consts  --      6.6139                 6.6340                 6.8554
 IR Inten    --      6.6443                 7.7391                 0.1699

                     82                     83                     84
                      A                      A                      A
 Frequencies --   3294.2624              3466.6782              3548.5512
 Red. masses --      1.1133                 1.0479                 1.0947
 Frc consts  --      7.1183                 7.4202                 8.1217
 IR Inten    --      1.7147                11.1558                10.0930

                     85                     86                     87
                      A                      A                      A
 Frequencies --   3571.1065              3626.2666              3636.5599
 Red. masses --      1.0759                 1.0754                 1.0776
 Frc consts  --      8.0839                 8.3316                 8.3966
 IR Inten    --     40.7548                55.0927                50.9241

 - Thermochemistry -
 -------------------
 Temperature   298.150 Kelvin.  Pressure   1.00000 Atm.
 Atom     1 has atomic number  6 and mass  12.00000

 Molecular mass:   276.07933 amu.
 Principal axes and moments of inertia in atomic units:
                           1         2         3
     Eigenvalues --  2044.87591********************
           X            1.00000   0.00275  -0.00011
           Y           -0.00275   1.00000  -0.00101
           Z            0.00011   0.00101   1.00000
 This molecule is an asymmetric top.
 Rotational symmetry number  1.
 Warning -- assumption of classical behavior for rotation
           may cause significant error
 Rotational temperatures (Kelvin)      0.04236     0.00792     0.00752
 Rotational constants (GHZ):           0.88257     0.16495     0.15676
 Zero-point vibrational energy     620645.7 (Joules/Mol)
                                  148.33788 (Kcal/Mol)
 Warning -- explicit consideration of  26 degrees of freedom as
           vibrations may cause significant error
 Vibrational temperatures:     37.10    55.71    65.65   113.19   133.06
          (Kelvin)            157.03   204.11   243.69   306.97   341.37
                              364.78   370.13   406.30   443.51   523.00
                              579.93   604.73   629.03   649.08   667.99
                              673.59   717.92   770.08   792.90   844.17
                              885.15   902.13   907.07   920.15   947.39
                              960.11   989.52   998.76  1023.19  1054.23
                             1092.31  1122.93  1129.59  1148.13  1162.26
                             1202.82  1223.47  1284.01  1335.31  1412.27
                             1479.24  1494.60  1532.22  1574.79  1599.28
                             1628.05  1701.45  1720.26  1781.28  1792.54
                             1858.65  1898.26  1918.39  1931.80  1943.03
                             1986.69  2001.62  2021.30  2045.39  2079.46
                             2120.91  2137.09  2151.72  2239.26  2248.15
                             2363.86  2415.44  2450.63  2487.70  2588.17
                             4305.11  4464.77  4592.15  4616.71  4621.53
                             4685.09  4739.71  4987.78  5105.57  5138.03
                             5217.39  5232.20

 Zero-point correction=                           0.236391 (Hartree/Particle)
 Thermal correction to Energy=                    0.253259
 Thermal correction to Enthalpy=                  0.254203
 Thermal correction to Gibbs Free Energy=         0.190641
 Sum of electronic and zero-point Energies=          -1228.056005
 Sum of electronic and thermal Energies=             -1228.039137
 Sum of electronic and thermal Enthalpies=           -1228.038193
 Sum of electronic and thermal Free Energies=        -1228.101755

                     E (Thermal)             CV                S
                      KCal/Mol        Cal/Mol-Kelvin    Cal/Mol-Kelvin
 Total                  158.922             65.680            133.777
 Electronic               0.000              0.000              0.000
 Translational            0.889              2.981             42.745
 Rotational               0.889              2.981             33.909
 Vibrational            157.145             59.718             57.122
 Vibration     1          0.593              1.985              6.130
 Vibration     2          0.594              1.981              5.323
 Vibration     3          0.595              1.979              4.998
 Vibration     4          0.600              1.964              3.924
 Vibration     5          0.602              1.955              3.607
 Vibration     6          0.606              1.942              3.284
 Vibration     7          0.615              1.911              2.779
 Vibration     8          0.625              1.880              2.442
 Vibration     9          0.644              1.821              2.015
 Vibration    10          0.656              1.784              1.823
 Vibration    11          0.665              1.757              1.706
 Vibration    12          0.667              1.751              1.680
 Vibration    13          0.681              1.706              1.519
 Vibration    14          0.698              1.658              1.372
 Vibration    15          0.737              1.547              1.107
 Vibration    16          0.768              1.463              0.951
 Vibration    17          0.783              1.426              0.891
 Vibration    18          0.798              1.389              0.835
 Vibration    19          0.810              1.358              0.792
 Vibration    20          0.822              1.329              0.754
 Vibration    21          0.825              1.321              0.743
 Vibration    22          0.854              1.252              0.661
 Vibration    23          0.890              1.172              0.576
 Vibration    24          0.906              1.137              0.542
 Vibration    25          0.944              1.060              0.473
 Vibration    26          0.975              1.000              0.424

                           ! Non-Optimized Parameters !
 Normal termination of Gaussian 16 at Fri May 19 01:18:30 2023.
