 Gaussian 16, Revision A.03,
 Gaussian 16:  ES64L-G16RevA.03 25-Dec-2016

 -----------------------------
 # opt freq b3lyp/6-31g(2df,p)
 -----------------------------

 -------------------
 Title Card Required
 -------------------
 Symbolic Z-matrix:
 Charge =  0 Multiplicity = 1

 SCF Done:  E(RB3LYP) =  -1009.70304316     A.U. after   18 cycles
 SCF Done:  E(RB3LYP) =  -1009.86311714     A.U. after   13 cycles
 SCF Done:  E(RB3LYP) =  -1010.02267387     A.U. after   14 cycles
 SCF Done:  E(RB3LYP) =  -1010.05330433     A.U. after   14 cycles
 SCF Done:  E(RB3LYP) =  -1010.08992884     A.U. after   14 cycles
 SCF Done:  E(RB3LYP) =  -1010.10442189     A.U. after   14 cycles
 SCF Done:  E(RB3LYP) =  -1010.11467484     A.U. after   13 cycles
 SCF Done:  E(RB3LYP) =  -1010.11849932     A.U. after   12 cycles
 SCF Done:  E(RB3LYP) =  -1010.12119137     A.U. after   12 cycles
 SCF Done:  E(RB3LYP) =  -1010.12660701     A.U. after   13 cycles
 SCF Done:  E(RB3LYP) =  -1010.20046924     A.U. after    9 cycles
 SCF Done:  E(RB3LYP) =  -1010.20049287     A.U. after   10 cycles
 SCF Done:  E(RB3LYP) =  -1010.20050268     A.U. after   10 cycles
 SCF Done:  E(RB3LYP) =  -1010.20050542     A.U. after    8 cycles
 SCF Done:  E(RB3LYP) =  -1010.20050645     A.U. after    8 cycles
 SCF Done:  E(RB3LYP) =  -1010.20050700     A.U. after    7 cycles
 SCF Done:  E(RB3LYP) =  -1010.20050732     A.U. after    7 cycles
 SCF Done:  E(RB3LYP) =  -1010.20050749     A.U. after    7 cycles
 SCF Done:  E(RB3LYP) =  -1010.20050763     A.U. after    7 cycles
 Optimization completed.
    -- Stationary point found.
 Normal termination of Gaussian 16 at Thu May 18 16:45:40 2023.

 ----------------------------------------------------------------------
 #N Geom=AllCheck Guess=TCheck SCRF=Check GenChk RB3LYP/6-31G(2df,p) Fr
 eq
 ----------------------------------------------------------------------

 Structure from the checkpoint file:  "CdC1CC2dNCdCNdCC2dCCdCCdCS1.chk"
 -------------------
 Title Card Required
 -------------------
 Charge =  0 Multiplicity = 1

                         Standard orientation:
 ---------------------------------------------------------------------
 Center     Atomic      Atomic             Coordinates (Angstroms)
 Number     Number       Type             X           Y           Z
 ---------------------------------------------------------------------
      1          6           0        1.430280    1.989128    1.021201
      2          6           0        1.475945    1.319760   -0.128302
      3          6           0        0.241591    1.073090   -1.008302
      4          6           0       -0.971186    0.533251   -0.250529
      5          7           0       -1.604478    1.368811    0.498040
      6          6           0       -2.821339    1.147937    1.079842
      7          6           0       -3.858949    0.438248    0.551382
      8          7           0       -3.865317   -0.223941   -0.648531
      9          6           0       -2.805188   -0.768892   -1.130320
     10          6           0       -1.499446   -0.861761   -0.428833
     11          6           0       -1.017337   -2.027362    0.042688
     12          6           0        0.277724   -2.216662    0.690401
     13          6           0        1.380019   -1.642899    0.181738
     14          6           0        2.725984   -1.563880    0.693066
     15          6           0        3.550728   -0.573773    0.305194
     16         16           0        3.096197    0.782374   -0.755280
     17          1           0        2.326651    2.190573    1.595081
     18          1           0        0.480306    2.332010    1.417701
     19          1           0        0.497691    0.406104   -1.832325
     20          1           0       -0.052705    2.029741   -1.454032
     21          1           0       -3.015883    1.757448    1.959001
     22          1           0       -4.831100    0.519640    1.030186
     23          1           0       -2.870632   -1.176458   -2.141532
     24          1           0       -1.663970   -2.900197   -0.047456
     25          1           0        0.316146   -2.821460    1.594669
     26          1           0        1.256092   -1.135895   -0.767381
     27          1           0        4.579832   -0.521325    0.644118
     28          1           0        3.074029   -2.289359    1.424546
 ---------------------------------------------------------------------

 SCF Done:  E(RB3LYP) =  -1010.20050763     A.U. after    1 cycles

 The electronic state is 1-A.
 Alpha  occ. eigenvalues --  -88.88497 -14.33853 -14.33752 -10.25471 -10.23840
 Alpha  occ. eigenvalues --  -10.22795 -10.21865 -10.21743 -10.21344 -10.21037
 Alpha  occ. eigenvalues --  -10.20745 -10.20513 -10.19869 -10.19816 -10.19414
 Alpha  occ. eigenvalues --  -10.18653  -7.94644  -5.91130  -5.90759  -5.90241
 Alpha  occ. eigenvalues --   -0.96314  -0.92085  -0.84667  -0.82244  -0.81024
 Alpha  occ. eigenvalues --   -0.76516  -0.74735  -0.71551  -0.69483  -0.66498
 Alpha  occ. eigenvalues --   -0.64497  -0.59976  -0.56295  -0.55389  -0.53104
 Alpha  occ. eigenvalues --   -0.52511  -0.50068  -0.49175  -0.47942  -0.46038
 Alpha  occ. eigenvalues --   -0.45143  -0.44770  -0.43991  -0.43087  -0.40341
 Alpha  occ. eigenvalues --   -0.39473  -0.39004  -0.38332  -0.37808  -0.35855
 Alpha  occ. eigenvalues --   -0.34228  -0.32794  -0.31935  -0.29176  -0.27792
 Alpha  occ. eigenvalues --   -0.26849  -0.26478  -0.25403  -0.22202  -0.20910
 Alpha virt. eigenvalues --   -0.06102  -0.04615  -0.02317  -0.01370   0.02054
 Alpha virt. eigenvalues --    0.05230   0.07041   0.07810   0.08790   0.10958
 Alpha virt. eigenvalues --    0.11694   0.12491   0.12892   0.13996   0.15271

 Mulliken charges:
               1
     1  C   -0.339320
     2  C    0.245588
     3  C   -0.370655
     4  C    0.204056
     5  N   -0.234184
     6  C   -0.034720
     7  C   -0.033435
     8  N   -0.177837
     9  C   -0.082976
    10  C    0.126455
    11  C   -0.164588
    12  C   -0.168800
    13  C   -0.015593
    14  C   -0.096067
    15  C   -0.114265
    16  S   -0.179589
    17  H    0.130221
    18  H    0.146176
    19  H    0.134054
    20  H    0.142943
    21  H    0.108876
    22  H    0.109819
    23  H    0.121915
    24  H    0.101674
    25  H    0.100711
    26  H    0.109091
    27  H    0.125242
    28  H    0.105211
 Sum of Mulliken charges =   0.00000

 Dipole moment (field-independent basis, Debye):
    X=              0.6316    Y=             -1.3004    Z=              1.2224  Tot=              1.8932
 Quadrupole moment (field-independent basis, Debye-Ang):
   XX=           -104.9945   YY=            -97.4042   ZZ=            -96.0049
   XY=             -1.9971   XZ=              1.1839   YZ=             -0.2211

  Exact polarizability: 244.192   4.859 158.719  -3.111   4.516 126.421
 Approx polarizability: 388.974  19.223 285.474 -13.507  13.480 236.809

                      1                      2                      3
                      A                      A                      A
 Frequencies --     42.7545                83.2968               103.5987
 Red. masses --      4.5469                 5.4725                 4.5441
 Frc consts  --      0.0049                 0.0224                 0.0287
 IR Inten    --      0.5572                 0.5686                 0.4967

                      4                      5                      6
                      A                      A                      A
 Frequencies --    137.7337               147.6802               177.5584
 Red. masses --      4.5903                 5.8162                 2.7511
 Frc consts  --      0.0513                 0.0747                 0.0511
 IR Inten    --      0.8103                 0.1924                 0.7020

                      7                      8                      9
                      A                      A                      A
 Frequencies --    197.4900               229.6124               259.8169
 Red. masses --      7.1785                 3.7970                 4.9744
 Frc consts  --      0.1650                 0.1179                 0.1978
 IR Inten    --      0.4355                 2.4385                 1.7094

                     10                     11                     12
                      A                      A                      A
 Frequencies --    277.2676               331.2815               340.4053
 Red. masses --      3.1280                 4.4802                 4.5674
 Frc consts  --      0.1417                 0.2897                 0.3118
 IR Inten    --      2.3522                 3.2819                 1.5518

                     13                     14                     15
                      A                      A                      A
 Frequencies --    359.9731               393.4128               415.0560
 Red. masses --      2.8808                 3.3746                 3.1708
 Frc consts  --      0.2199                 0.3077                 0.3218
 IR Inten    --      7.4076                 0.8775                 9.6625

                     16                     17                     18
                      A                      A                      A
 Frequencies --    464.0483               473.2162               491.9555
 Red. masses --      3.8371                 3.3020                 5.1763
 Frc consts  --      0.4868                 0.4357                 0.7381
 IR Inten    --     22.1306                 2.7334                 2.8272

                     19                     20                     21
                      A                      A                      A
 Frequencies --    521.3398               596.5955               609.6470
 Red. masses --      4.0255                 4.6861                 4.4915
 Frc consts  --      0.6446                 0.9827                 0.9835
 IR Inten    --     12.1293                 0.7364                 2.4643

                     22                     23                     24
                      A                      A                      A
 Frequencies --    621.4924               667.7456               691.0705
 Red. masses --      4.5285                 4.7606                 4.3033
 Frc consts  --      1.0306                 1.2507                 1.2109
 IR Inten    --      2.6990                 4.4741                 3.8362

                     25                     26                     27
                      A                      A                      A
 Frequencies --    711.3623               722.5518               737.0184
 Red. masses --      2.1229                 1.6465                 2.1198
 Frc consts  --      0.6329                 0.5065                 0.6784
 IR Inten    --     12.8378                 6.2015                15.6004

                     28                     29                     30
                      A                      A                      A
 Frequencies --    771.0240               814.4548               837.0711
 Red. masses --      2.0253                 2.9347                 1.4723
 Frc consts  --      0.7094                 1.1470                 0.6078
 IR Inten    --      6.8694                20.6777                 6.6639

                     31                     32                     33
                      A                      A                      A
 Frequencies --    873.0308               890.4989               896.9257
 Red. masses --      3.1172                 2.1644                 1.5845
 Frc consts  --      1.3998                 1.0112                 0.7510
 IR Inten    --     28.6136                 6.7826                 7.2929

                     34                     35                     36
                      A                      A                      A
 Frequencies --    915.6773               920.2979               931.4072
 Red. masses --      2.4063                 1.8813                 2.3709
 Frc consts  --      1.1887                 0.9388                 1.2118
 IR Inten    --      1.2032                11.8486                 3.2627

                     37                     38                     39
                      A                      A                      A
 Frequencies --    945.5345               956.1158               979.5767
 Red. masses --      1.3305                 1.3748                 1.3641
 Frc consts  --      0.7009                 0.7405                 0.7712
 IR Inten    --      7.3078                14.7368                22.8237

                     40                     41                     42
                      A                      A                      A
 Frequencies --   1012.2326              1036.6281              1043.2564
 Red. masses --      3.4784                 1.1870                 2.3786
 Frc consts  --      2.0999                 0.7515                 1.5253
 IR Inten    --      1.9313                25.9770                 3.9237

                     43                     44                     45
                      A                      A                      A
 Frequencies --   1087.6113              1124.2640              1129.3463
 Red. masses --      2.1696                 2.0767                 2.3802
 Frc consts  --      1.5121                 1.5466                 1.7886
 IR Inten    --      7.7064                 0.3256                27.5002

                     46                     47                     48
                      A                      A                      A
 Frequencies --   1169.4554              1178.6471              1209.1134
 Red. masses --      2.5031                 2.3557                 1.3941
 Frc consts  --      2.0170                 1.9282                 1.2008
 IR Inten    --     12.6673                 5.1698                 2.4023

                     49                     50                     51
                      A                      A                      A
 Frequencies --   1243.0930              1291.2845              1293.6130
 Red. masses --      1.2619                 1.3917                 1.3107
 Frc consts  --      1.1489                 1.3672                 1.2923
 IR Inten    --     13.2290                 1.0134                 1.2764

                     52                     53                     54
                      A                      A                      A
 Frequencies --   1311.9105              1337.5351              1357.9891
 Red. masses --      1.3955                 1.2884                 1.5623
 Frc consts  --      1.4152                 1.3580                 1.6975
 IR Inten    --      2.7488                20.5725                28.9046

                     55                     56                     57
                      A                      A                      A
 Frequencies --   1370.5028              1386.1921              1420.4459
 Red. masses --      1.4573                 1.3174                 1.1662
 Frc consts  --      1.6127                 1.4914                 1.3863
 IR Inten    --      6.5037                 9.4555                15.0046

                     58                     59                     60
                      A                      A                      A
 Frequencies --   1460.6318              1487.9763              1541.9097
 Red. masses --      1.6025                 1.0832                 6.9543
 Frc consts  --      2.0143                 1.4130                 9.7414
 IR Inten    --      5.1514                 8.7247                 3.7229

                     61                     62                     63
                      A                      A                      A
 Frequencies --   1602.0939              1623.6285              1630.0895
 Red. masses --      6.4809                 6.4419                 9.3023
 Frc consts  --      9.8008                10.0054                14.5634
 IR Inten    --      5.9124                32.8087                 5.4040

                     64                     65                     66
                      A                      A                      A
 Frequencies --   1664.8420              1675.2795              1700.1538
 Red. masses --      8.9491                 5.2048                 5.8762
 Frc consts  --     14.6143                 8.6065                10.0074
 IR Inten    --     12.5359                 7.0646                 1.1159

                     67                     68                     69
                      A                      A                      A
 Frequencies --   3047.5105              3099.1492              3118.2330
 Red. masses --      1.0669                 1.0869                 1.0954
 Frc consts  --      5.8382                 6.1507                 6.2754
 IR Inten    --      6.6048                18.0095                 6.1651

                     70                     71                     72
                      A                      A                      A
 Frequencies --   3121.7152              3144.7908              3149.2644
 Red. masses --      1.0861                 1.0897                 1.0839
 Frc consts  --      6.2363                 6.3494                 6.3336
 IR Inten    --     17.7362                15.9889                 3.0933

                     73                     74                     75
                      A                      A                      A
 Frequencies --   3154.4486              3156.2707              3170.7320
 Red. masses --      1.0850                 1.0600                 1.0941
 Frc consts  --      6.3610                 6.2217                 6.4807
 IR Inten    --      6.4172                 2.7277                46.5290

                     76                     77                     78
                      A                      A                      A
 Frequencies --   3188.8520              3201.5099              3249.7848
 Red. masses --      1.0949                 1.0835                 1.1158
 Frc consts  --      6.5601                 6.5434                 6.9431
 IR Inten    --     11.5901                 5.6304                 0.3377

 - Thermochemistry -
 -------------------
 Temperature   298.150 Kelvin.  Pressure   1.00000 Atm.
 Atom     1 has atomic number  6 and mass  12.00000

 Molecular mass:   228.07212 amu.
 Principal axes and moments of inertia in atomic units:
                           1         2         3
     Eigenvalues --  1819.920355340.671856256.02496
           X            0.99998  -0.00505   0.00451
           Y            0.00501   0.99994   0.00948
           Z           -0.00456  -0.00946   0.99994
 This molecule is an asymmetric top.
 Rotational symmetry number  1.
 Warning -- assumption of classical behavior for rotation
           may cause significant error
 Rotational temperatures (Kelvin)      0.04759     0.01622     0.01384
 Rotational constants (GHZ):           0.99166     0.33792     0.28848
 Zero-point vibrational energy     572584.1 (Joules/Mol)
                                  136.85088 (Kcal/Mol)
 Warning -- explicit consideration of  21 degrees of freedom as
           vibrations may cause significant error
 Vibrational temperatures:     61.51   119.85   149.06   198.17   212.48
          (Kelvin)            255.47   284.14   330.36   373.82   398.93
                              476.64   489.77   517.92   566.03   597.17
                              667.66   680.85   707.81   750.09   858.37
                              877.15   894.19   960.74   994.30  1023.49
                             1039.59  1060.41  1109.33  1171.82  1204.36
                             1256.10  1281.23  1290.48  1317.46  1324.10
                             1340.09  1360.41  1375.64  1409.39  1456.38
                             1491.48  1501.01  1564.83  1617.57  1624.88
                             1682.59  1695.81  1739.64  1788.53  1857.87
                             1861.22  1887.55  1924.41  1953.84  1971.85
                             1994.42  2043.70  2101.52  2140.87  2218.46
                             2305.06  2336.04  2345.34  2395.34  2410.35
                             2446.14  4384.69  4458.98  4486.44  4491.45
                             4524.65  4531.09  4538.55  4541.17  4561.98
                             4588.05  4606.26  4675.72

 Zero-point correction=                           0.218086 (Hartree/Particle)
 Thermal correction to Energy=                    0.231866
 Thermal correction to Enthalpy=                  0.232810
 Thermal correction to Gibbs Free Energy=         0.177797
 Sum of electronic and zero-point Energies=          -1009.982422
 Sum of electronic and thermal Energies=             -1009.968642
 Sum of electronic and thermal Enthalpies=           -1009.967698
 Sum of electronic and thermal Free Energies=        -1010.022711

                     E (Thermal)             CV                S
                      KCal/Mol        Cal/Mol-Kelvin    Cal/Mol-Kelvin
 Total                  145.498             54.902            115.784
 Electronic               0.000              0.000              0.000
 Translational            0.889              2.981             42.176
 Rotational               0.889              2.981             32.475
 Vibrational            143.721             48.941             41.134
 Vibration     1          0.595              1.980              5.127
 Vibration     2          0.600              1.961              3.812
 Vibration     3          0.605              1.946              3.385
 Vibration     4          0.614              1.916              2.835
 Vibration     5          0.617              1.905              2.702
 Vibration     6          0.628              1.870              2.354
 Vibration     7          0.637              1.843              2.156
 Vibration     8          0.652              1.796              1.882
 Vibration     9          0.668              1.746              1.663
 Vibration    10          0.678              1.716              1.550
 Vibration    11          0.714              1.613              1.254
 Vibration    12          0.720              1.595              1.210
 Vibration    13          0.734              1.555              1.122
 Vibration    14          0.761              1.484              0.987
 Vibration    15          0.778              1.438              0.909
 Vibration    16          0.822              1.330              0.754
 Vibration    17          0.830              1.309              0.729
 Vibration    18          0.848              1.268              0.679
 Vibration    19          0.876              1.203              0.607
 Vibration    20          0.954              1.039              0.456
 Vibration    21          0.969              1.011              0.433

                           ! Non-Optimized Parameters !
 Normal termination of Gaussian 16 at Thu May 18 19:11:59 2023.
