 Gaussian 16, Revision A.03,
 Gaussian 16:  ES64L-G16RevA.03 25-Dec-2016

 -----------------------------
 # opt freq b3lyp/6-31g(2df,p)
 -----------------------------

 -------------------
 Title Card Required
 -------------------
 Symbolic Z-matrix:
 Charge =  0 Multiplicity = 1

 SCF Done:  E(RB3LYP) =  -1336.80757747     A.U. after   20 cycles
 SCF Done:  E(RB3LYP) =  -1336.86193194     A.U. after   14 cycles
 SCF Done:  E(RB3LYP) =  -1336.89433235     A.U. after   17 cycles
 SCF Done:  E(RB3LYP) =  -1336.92160091     A.U. after   14 cycles
 SCF Done:  E(RB3LYP) =  -1336.94388520     A.U. after   14 cycles
 SCF Done:  E(RB3LYP) =  -1336.95874078     A.U. after   14 cycles
 SCF Done:  E(RB3LYP) =  -1336.96798398     A.U. after   13 cycles
 SCF Done:  E(RB3LYP) =  -1336.97328596     A.U. after   14 cycles
 SCF Done:  E(RB3LYP) =  -1336.97556100     A.U. after   13 cycles
 SCF Done:  E(RB3LYP) =  -1336.97687077     A.U. after   13 cycles
 SCF Done:  E(RB3LYP) =  -1336.98152467     A.U. after   13 cycles
 SCF Done:  E(RB3LYP) =  -1336.98179286     A.U. after   12 cycles
 SCF Done:  E(RB3LYP) =  -1336.98239632     A.U. after   12 cycles
 SCF Done:  E(RB3LYP) =  -1336.98262412     A.U. after   12 cycles
 SCF Done:  E(RB3LYP) =  -1336.98268652     A.U. after   11 cycles
 SCF Done:  E(RB3LYP) =  -1336.98270692     A.U. after   10 cycles
 SCF Done:  E(RB3LYP) =  -1336.98271487     A.U. after    9 cycles
 SCF Done:  E(RB3LYP) =  -1336.98271566     A.U. after    8 cycles
 SCF Done:  E(RB3LYP) =  -1336.98271588     A.U. after    7 cycles
 Optimization completed.
    -- Stationary point found.

 The electronic state is 1-A.
 Alpha  occ. eigenvalues --  -88.89379 -88.88729 -10.22679 -10.21648 -10.21365
 Alpha  occ. eigenvalues --  -10.21126 -10.20901 -10.20473 -10.20178 -10.20123
 Alpha  occ. eigenvalues --  -10.20030 -10.20012 -10.19893 -10.19865 -10.19418
 Alpha  occ. eigenvalues --  -10.19209  -7.95496  -7.94915  -5.92028  -5.91658
 Alpha  occ. eigenvalues --   -5.91440  -5.91038  -5.90969  -5.90416  -0.86751
 Alpha  occ. eigenvalues --   -0.83896  -0.82013  -0.80633  -0.78618  -0.76062
 Alpha  occ. eigenvalues --   -0.72943  -0.70261  -0.66913  -0.64518  -0.62494
 Alpha  occ. eigenvalues --   -0.58131  -0.56920  -0.54639  -0.52916  -0.51305
 Alpha  occ. eigenvalues --   -0.49784  -0.47902  -0.46204  -0.45501  -0.44718
 Alpha  occ. eigenvalues --   -0.42982  -0.42005  -0.41378  -0.39819  -0.38445
 Alpha  occ. eigenvalues --   -0.38245  -0.37612  -0.36644  -0.34863  -0.34686
 Alpha  occ. eigenvalues --   -0.33644  -0.31511  -0.30810  -0.28185  -0.27749
 Alpha  occ. eigenvalues --   -0.25876  -0.23736  -0.20852  -0.19029
 Alpha virt. eigenvalues --   -0.08177  -0.05587  -0.04346  -0.01382   0.00810
 Alpha virt. eigenvalues --    0.03866   0.04649   0.07912   0.08067   0.09150
 Alpha virt. eigenvalues --    0.09840   0.10307   0.11596   0.12534   0.15100

 Mulliken charges:
               1
     1  C   -0.362768
     2  C    0.194587
     3  C   -0.184248
     4  C    0.116324
     5  C   -0.135510
     6  C   -0.075514
     7  C   -0.107595
     8  C   -0.103852
     9  C   -0.130801
    10  C    0.129282
    11  C   -0.139967
    12  C   -0.110861
    13  C   -0.040457
    14  C   -0.127258
    15  S   -0.101035
    16  S   -0.132956
    17  H    0.122703
    18  H    0.140413
    19  H    0.098523
    20  H    0.111609
    21  H    0.100016
    22  H    0.100876
    23  H    0.098025
    24  H    0.095884
    25  H    0.104735
    26  H    0.100829
    27  H    0.113548
    28  H    0.125469
 Sum of Mulliken charges =  -0.00000

 Dipole moment (field-independent basis, Debye):
    X=             -3.6384    Y=             -1.0819    Z=             -0.2167  Tot=              3.8021
 Quadrupole moment (field-independent basis, Debye-Ang):
   XX=           -108.5294   YY=           -106.4770   ZZ=           -103.5270
   XY=             -4.0163   XZ=              0.3926   YZ=              5.6221

 Normal termination of Gaussian 16 at Wed May 17 12:08:19 2023.

 ----------------------------------------------------------------------
 #N Geom=AllCheck Guess=TCheck SCRF=Check GenChk RB3LYP/6-31G(2df,p) Fr
 eq
 ----------------------------------------------------------------------

 Structure from the checkpoint file:  "CdC1CdC2CdCCdCCdC2CdCCdCSS1.chk"
 -------------------
 Title Card Required
 -------------------
 Charge =  0 Multiplicity = 1

                         Standard orientation:
 ---------------------------------------------------------------------
 Center     Atomic      Atomic             Coordinates (Angstroms)
 Number     Number       Type             X           Y           Z
 ---------------------------------------------------------------------
      1          6           0        0.924540    0.315372   -2.027398
      2          6           0        0.942432    0.918660   -0.834316
      3          6           0       -0.228224    1.224357    0.004785
      4          6           0       -1.367157    0.529634    0.280165
      5          6           0       -2.374652    1.184161    1.129464
      6          6           0       -3.716087    1.185114    0.961886
      7          6           0       -4.482346    0.503761   -0.046513
      8          6           0       -4.090706   -0.571006   -0.778816
      9          6           0       -2.854296   -1.285097   -0.658426
     10          6           0       -1.668852   -0.882011   -0.118153
     11          6           0       -0.555348   -1.828333   -0.024077
     12          6           0        0.403207   -1.738923    0.924167
     13          6           0        1.786397   -1.862057    0.546319
     14          6           0        2.680842   -1.014534    1.105087
     15         16           0        3.797778   -0.130023    0.059106
     16         16           0        2.521925    1.563400   -0.166135
     17          1           0       -0.003797   -0.056558   -2.449428
     18          1           0        1.830740    0.168222   -2.602809
     19          1           0       -0.161426    2.197824    0.490328
     20          1           0       -1.975524    1.790326    1.940508
     21          1           0       -4.290371    1.808309    1.643441
     22          1           0       -5.501984    0.854615   -0.182506
     23          1           0       -4.825358   -1.012325   -1.447459
     24          1           0       -2.880914   -2.312395   -1.019308
     25          1           0       -0.384280   -2.467897   -0.888926
     26          1           0        0.206875   -1.138439    1.808583
     27          1           0        2.005660   -2.309190   -0.419343
     28          1           0        2.466613   -0.531103    2.054341
 ---------------------------------------------------------------------

 SCF Done:  E(RB3LYP) =  -1336.98271588     A.U. after    1 cycles
