 Gaussian 16, Revision A.03,
 Gaussian 16:  ES64L-G16RevA.03 25-Dec-2016

 -----------------------------
 # opt freq b3lyp/6-31g(2df,p)
 -----------------------------

 -------------------
 Title Card Required
 -------------------
 Symbolic Z-matrix:
 Charge =  0 Multiplicity = 1

 SCF Done:  E(RB3LYP) =  -633.748269816     A.U. after   21 cycles
 SCF Done:  E(RB3LYP) =  -633.285937628     A.U. after   23 cycles
 SCF Done:  E(RB3LYP) =  -633.847157296     A.U. after   17 cycles
 SCF Done:  E(RB3LYP) =  -633.912919574     A.U. after   15 cycles
 SCF Done:  E(RB3LYP) =  -633.903902847     A.U. after   21 cycles
 SCF Done:  E(RB3LYP) =  -633.895561823     A.U. after   16 cycles
 SCF Done:  E(RB3LYP) =  -633.813535058     A.U. after   17 cycles
 SCF Done:  E(RB3LYP) =  -633.845804833     A.U. after   17 cycles
 SCF Done:  E(RB3LYP) =  -633.876726905     A.U. after   17 cycles
 SCF Done:  E(RB3LYP) =  -633.889107976     A.U. after   16 cycles
 SCF Done:  E(RB3LYP) =  -634.246674416     A.U. after    8 cycles
 SCF Done:  E(RB3LYP) =  -634.246675861     A.U. after    8 cycles
 SCF Done:  E(RB3LYP) =  -634.246677521     A.U. after    8 cycles
 SCF Done:  E(RB3LYP) =  -634.246679511     A.U. after    8 cycles
 SCF Done:  E(RB3LYP) =  -634.246680760     A.U. after    8 cycles
 SCF Done:  E(RB3LYP) =  -634.246681682     A.U. after    7 cycles
 SCF Done:  E(RB3LYP) =  -634.246682277     A.U. after    7 cycles
 SCF Done:  E(RB3LYP) =  -634.246682730     A.U. after    8 cycles
 SCF Done:  E(RB3LYP) =  -634.246683034     A.U. after    8 cycles
 Optimization completed.
    -- Stationary point found.
 Normal termination of Gaussian 16 at Sat May 20 17:29:56 2023.

 ----------------------------------------------------------------------
 #N Geom=AllCheck Guess=TCheck SCRF=Check GenChk RB3LYP/6-31G(2df,p) Fr
 eq
 ----------------------------------------------------------------------

 Structure from the checkpoint file:  "CdC1CC2dCCdCCdCqCCrCqdOrNC12.chk"
 -------------------
 Title Card Required
 -------------------
 Charge =  0 Multiplicity = 1

                         Standard orientation:
 ---------------------------------------------------------------------
 Center     Atomic      Atomic             Coordinates (Angstroms)
 Number     Number       Type             X           Y           Z
 ---------------------------------------------------------------------
      1          6           0        3.420880    1.624644    0.250302
      2          6           0        2.550360    0.699702   -0.122008
      3          6           0        2.513283   -0.359489   -1.215230
      4          6           0        1.387981   -1.017232   -0.427298
      5          6           0        1.058352   -2.300957   -0.218060
      6          6           0        0.092025   -2.520249    0.894786
      7          6           0       -1.162882   -2.076659    0.636260
      8          6           0       -1.539958   -0.848802    1.305675
      9          6           0       -1.918713    0.173943    0.504784
     10          6           0       -2.789427    0.051463   -0.723092
     11          6           0       -2.073157    0.254408   -2.070526
     12          6           0       -1.152905    1.462170    0.573718
     13          8           0       -1.645954    2.573504    0.623571
     14          7           0        0.213191    1.318114    0.326935
     15          6           0        1.219546    0.243371    0.494008
     16          1           0        4.340748    1.796736   -0.299402
     17          1           0        3.250909    2.247012    1.123888
     18          1           0        3.421519   -0.945573   -1.382530
     19          1           0        2.183341    0.048939   -2.179690
     20          1           0        1.517175   -3.091332   -0.809807
     21          1           0        0.498546   -2.379419    1.897378
     22          1           0       -1.552387   -2.210947   -0.368595
     23          1           0       -0.992803   -0.624342    2.217844
     24          1           0       -3.567363    0.820346   -0.624894
     25          1           0       -3.307005   -0.912614   -0.707456
     26          1           0       -1.618554    1.247127   -2.128825
     27          1           0       -2.785724    0.163299   -2.895921
     28          1           0       -1.281921   -0.487265   -2.217727
     29          1           0        0.646839    2.230021    0.246317
     30          1           0        1.289668   -0.034704    1.552396
 ---------------------------------------------------------------------

 SCF Done:  E(RB3LYP) =  -634.246683034     A.U. after    1 cycles

 The electronic state is 1-A.
 Alpha  occ. eigenvalues --  -19.10187 -14.35150 -10.27948 -10.24464 -10.21030
 Alpha  occ. eigenvalues --  -10.20885 -10.20492 -10.20279 -10.20253 -10.20124
 Alpha  occ. eigenvalues --  -10.19527 -10.19068 -10.19051 -10.18835 -10.17646
 Alpha  occ. eigenvalues --   -1.02941  -0.91977  -0.85607  -0.84252  -0.79480
 Alpha  occ. eigenvalues --   -0.75752  -0.73224  -0.70196  -0.68295  -0.63268
 Alpha  occ. eigenvalues --   -0.61745  -0.57489  -0.54916  -0.54847  -0.51727
 Alpha  occ. eigenvalues --   -0.49719  -0.48303  -0.47817  -0.46140  -0.45070
 Alpha  occ. eigenvalues --   -0.44242  -0.43309  -0.42390  -0.41824  -0.39877
 Alpha  occ. eigenvalues --   -0.39300  -0.38556  -0.37899  -0.36045  -0.34834
 Alpha  occ. eigenvalues --   -0.34322  -0.33990  -0.33700  -0.30422  -0.27518
 Alpha  occ. eigenvalues --   -0.25885  -0.24957  -0.24384  -0.19777
 Alpha virt. eigenvalues --   -0.03876  -0.03278  -0.00808   0.02192   0.04226
 Alpha virt. eigenvalues --    0.09106   0.09604   0.10425   0.11573   0.11865
 Alpha virt. eigenvalues --    0.12912   0.13661   0.14468   0.14897   0.15938

 Mulliken charges:
               1
     1  C   -0.441681
     2  C    0.343550
     3  C   -0.408523
     4  C    0.327018
     5  C   -0.255692
     6  C   -0.175744
     7  C   -0.056118
     8  C   -0.203672
     9  C    0.180696
    10  C   -0.272354
    11  C   -0.391258
    12  C    0.305149
    13  O   -0.374982
    14  N   -0.309690
    15  C   -0.133580
    16  H    0.119568
    17  H    0.117180
    18  H    0.126098
    19  H    0.131634
    20  H    0.101978
    21  H    0.100360
    22  H    0.107893
    23  H    0.099879
    24  H    0.133018
    25  H    0.106884
    26  H    0.137522
    27  H    0.115006
    28  H    0.120291
    29  H    0.243791
    30  H    0.105779
 Sum of Mulliken charges =  -0.00000

 Dipole moment (field-independent basis, Debye):
    X=              2.8295    Y=             -1.9559    Z=             -1.0444  Tot=              3.5948
 Quadrupole moment (field-independent basis, Debye-Ang):
   XX=            -85.8217   YY=            -97.2614   ZZ=            -85.8139
   XY=              6.7742   XZ=              2.3625   YZ=             -0.0954

  Exact polarizability: 168.413  -5.120 162.418   1.069  -1.060 115.748
 Approx polarizability: 256.999 -40.075 303.776   4.949 -11.026 184.087

                      1                      2                      3
                      A                      A                      A
 Frequencies --     49.8063                63.3447                89.0758
 Red. masses --      4.2154                 3.1478                 5.2168
 Frc consts  --      0.0062                 0.0074                 0.0244
 IR Inten    --      0.9700                 0.0867                 1.2917

                      4                      5                      6
                      A                      A                      A
 Frequencies --     91.8027               137.1951               176.3951
 Red. masses --      2.7076                 3.9415                 3.0509
 Frc consts  --      0.0134                 0.0437                 0.0559
 IR Inten    --      0.1372                 1.5833                 0.1699

                      7                      8                      9
                      A                      A                      A
 Frequencies --    197.3834               208.8391               227.3956
 Red. masses --      2.8584                 1.5667                 2.9280
 Frc consts  --      0.0656                 0.0403                 0.0892
 IR Inten    --      2.3367                 0.6198                 2.5858

                     10                     11                     12
                      A                      A                      A
 Frequencies --    234.8066               284.8443               324.2550
 Red. masses --      4.5645                 1.9944                 2.9528
 Frc consts  --      0.1483                 0.0953                 0.1829
 IR Inten    --      4.1416                 2.8806                 1.6594

                     13                     14                     15
                      A                      A                      A
 Frequencies --    344.9809               374.8702               407.5681
 Red. masses --      2.7402                 3.3417                 3.5478
 Frc consts  --      0.1921                 0.2767                 0.3472
 IR Inten    --      9.5571                 4.9898                 2.4649

                     16                     17                     18
                      A                      A                      A
 Frequencies --    412.0074               469.8421               486.2589
 Red. masses --      3.8836                 3.0834                 3.3849
 Frc consts  --      0.3884                 0.4010                 0.4716
 IR Inten    --     11.1081                 1.7219                 1.7478

                     19                     20                     21
                      A                      A                      A
 Frequencies --    524.7498               554.3086               613.1776
 Red. masses --      3.3554                 3.2878                 1.9708
 Frc consts  --      0.5444                 0.5952                 0.4366
 IR Inten    --      4.1611                 1.7637                 7.0412

                     22                     23                     24
                      A                      A                      A
 Frequencies --    623.8624               659.9474               672.4260
 Red. masses --      1.3266                 3.6514                 3.2894
 Frc consts  --      0.3042                 0.9370                 0.8763
 IR Inten    --     45.8075                13.1566                 2.0522

                     25                     26                     27
                      A                      A                      A
 Frequencies --    708.3173               772.4955               778.6285
 Red. masses --      2.0976                 1.8929                 3.4425
 Frc consts  --      0.6201                 0.6655                 1.2296
 IR Inten    --      4.2096                46.9305                18.9697

                     28                     29                     30
                      A                      A                      A
 Frequencies --    789.0467               806.0814               809.0066
 Red. masses --      2.2691                 1.9318                 1.7634
 Frc consts  --      0.8323                 0.7396                 0.6800
 IR Inten    --    109.7237                22.2144                25.8828

                     31                     32                     33
                      A                      A                      A
 Frequencies --    844.2442               903.9659               916.8797
 Red. masses --      1.7759                 2.1390                 1.9351
 Frc consts  --      0.7458                 1.0298                 0.9585
 IR Inten    --      4.1979                 5.4679                 1.5854

                     34                     35                     36
                      A                      A                      A
 Frequencies --    927.7691               935.0674               954.8788
 Red. masses --      1.5989                 1.3474                 1.8336
 Frc consts  --      0.8109                 0.6941                 0.9850
 IR Inten    --     10.6588                38.0278                14.8139

                     37                     38                     39
                      A                      A                      A
 Frequencies --   1009.2353              1026.8125              1036.0405
 Red. masses --      2.6976                 1.2727                 2.8794
 Frc consts  --      1.6189                 0.7906                 1.8210
 IR Inten    --      0.2192                43.6962                12.7463

                     40                     41                     42
                      A                      A                      A
 Frequencies --   1053.6484              1072.9737              1084.0060
 Red. masses --      3.9268                 2.3571                 1.7651
 Frc consts  --      2.5685                 1.5988                 1.2220
 IR Inten    --      3.3324                 3.2092                 3.5940

                     43                     44                     45
                      A                      A                      A
 Frequencies --   1097.4348              1114.7182              1144.7449
 Red. masses --      2.0972                 1.4458                 3.1097
 Frc consts  --      1.4882                 1.0585                 2.4009
 IR Inten    --     21.1805                 5.4506                 9.0024

                     46                     47                     48
                      A                      A                      A
 Frequencies --   1168.5657              1202.4953              1206.4228
 Red. masses --      2.3296                 1.4186                 1.9522
 Frc consts  --      1.8743                 1.2086                 1.6740
 IR Inten    --     25.9830                 4.1511                 7.4395

                     49                     50                     51
                      A                      A                      A
 Frequencies --   1232.1412              1253.5205              1272.4907
 Red. masses --      1.8298                 1.7009                 1.5988
 Frc consts  --      1.6367                 1.5746                 1.5253
 IR Inten    --      3.8679               101.7686                34.4623

                     52                     53                     54
                      A                      A                      A
 Frequencies --   1291.0315              1306.9336              1336.4553
 Red. masses --      1.3180                 1.7748                 1.2600
 Frc consts  --      1.2943                 1.7861                 1.3260
 IR Inten    --      3.1644                40.3425                 4.8850

                     55                     56                     57
                      A                      A                      A
 Frequencies --   1339.2270              1346.6299              1374.7768
 Red. masses --      1.3483                 1.3959                 1.5266
 Frc consts  --      1.4248                 1.4914                 1.6999
 IR Inten    --      8.3633                 7.3093                 9.4350

                     58                     59                     60
                      A                      A                      A
 Frequencies --   1409.4392              1445.4413              1448.6952
 Red. masses --      1.2210                 1.1294                 1.3218
 Frc consts  --      1.4291                 1.3903                 1.6344
 IR Inten    --      1.8278                 3.8171                12.5566

                     61                     62                     63
                      A                      A                      A
 Frequencies --   1458.9802              1478.2494              1497.6425
 Red. masses --      1.1224                 1.0769                 1.0439
 Frc consts  --      1.4076                 1.3865                 1.3796
 IR Inten    --      3.5758                 5.0690                 6.1639

                     64                     65                     66
                      A                      A                      A
 Frequencies --   1503.4731              1571.6866              1618.3248
 Red. masses --      1.0546                 4.8611                 6.4389
 Frc consts  --      1.4046                 7.0748                 9.9356
 IR Inten    --      4.4139                13.0754                 1.8136

                     67                     68                     69
                      A                      A                      A
 Frequencies --   1663.0507              1757.8580              1760.8328
 Red. masses --      8.8462                 8.1299                 8.0339
 Frc consts  --     14.4152                14.8014                14.6762
 IR Inten    --      3.0106               211.5759               195.8906

                     70                     71                     72
                      A                      A                      A
 Frequencies --   3017.1488              3019.5692              3024.5363
 Red. masses --      1.0703                 1.0784                 1.0647
 Frc consts  --      5.7403                 5.7931                 5.7385
 IR Inten    --     25.3703                 5.2049                12.3364

                     73                     74                     75
                      A                      A                      A
 Frequencies --   3039.8334              3075.4727              3084.7910
 Red. masses --      1.0349                 1.0961                 1.0972
 Frc consts  --      5.6342                 6.1081                 6.1518
 IR Inten    --     20.4193                 8.0805                16.0003

                     76                     77                     78
                      A                      A                      A
 Frequencies --   3098.5509              3109.1809              3119.6534
 Red. masses --      1.0852                 1.1021                 1.1015
 Frc consts  --      6.1389                 6.2772                 6.3162
 IR Inten    --     14.6146                33.6986                19.3560

                     79                     80                     81
                      A                      A                      A
 Frequencies --   3132.7355              3141.0447              3146.2223
 Red. masses --      1.0892                 1.0612                 1.0883
 Frc consts  --      6.2981                 6.1688                 6.3472
 IR Inten    --     36.8987                 4.8940                 8.9871

                     82                     83                     84
                      A                      A                      A
 Frequencies --   3166.6970              3221.4058              3564.4901
 Red. masses --      1.0877                 1.1146                 1.0746
 Frc consts  --      6.4264                 6.8152                 8.0445
 IR Inten    --     14.6652                 6.1191                20.3120

 - Thermochemistry -
 -------------------
 Temperature   298.150 Kelvin.  Pressure   1.00000 Atm.
 Atom     1 has atomic number  6 and mass  12.00000

 Molecular mass:   201.11536 amu.
 Principal axes and moments of inertia in atomic units:
                           1         2         3
     Eigenvalues --  2204.962243226.260484216.55828
           X            0.99920   0.03392   0.02106
           Y           -0.03388   0.99942  -0.00190
           Z           -0.02111   0.00118   0.99978
 This molecule is an asymmetric top.
 Rotational symmetry number  1.
 Warning -- assumption of classical behavior for rotation
           may cause significant error
 Rotational temperatures (Kelvin)      0.03928     0.02685     0.02054
 Rotational constants (GHZ):           0.81849     0.55939     0.42801
 Zero-point vibrational energy     651491.3 (Joules/Mol)
                                  155.71015 (Kcal/Mol)
 Warning -- explicit consideration of  21 degrees of freedom as
           vibrations may cause significant error
 Vibrational temperatures:     71.66    91.14   128.16   132.08   197.39
          (Kelvin)            253.79   283.99   300.47   327.17   337.83
                              409.83   466.53   496.35   539.35   586.40
                              592.79   676.00   699.62   755.00   797.53
                              882.23   897.60   949.52   967.47  1019.11
                             1111.45  1120.27  1135.26  1159.77  1163.98
                             1214.68  1300.61  1319.19  1334.85  1345.35
                             1373.86  1452.06  1477.35  1490.63  1515.97
                             1543.77  1559.64  1578.96  1603.83  1647.03
                             1681.31  1730.12  1735.77  1772.78  1803.54
                             1830.83  1857.51  1880.39  1922.86  1926.85
                             1937.50  1978.00  2027.87  2079.67  2084.35
                             2099.15  2126.87  2154.77  2163.16  2261.31
                             2328.41  2392.76  2529.17  2533.45  4341.00
                             4344.49  4351.63  4373.64  4424.92  4438.33
                             4458.12  4473.42  4488.49  4507.31  4519.26
                             4526.71  4556.17  4634.88  5128.51

 Zero-point correction=                           0.248140 (Hartree/Particle)
 Thermal correction to Energy=                    0.262370
 Thermal correction to Enthalpy=                  0.263314
 Thermal correction to Gibbs Free Energy=         0.207476
 Sum of electronic and zero-point Energies=           -633.998543
 Sum of electronic and thermal Energies=              -633.984313
 Sum of electronic and thermal Enthalpies=            -633.983369
 Sum of electronic and thermal Free Energies=         -634.039207

                     E (Thermal)             CV                S
                      KCal/Mol        Cal/Mol-Kelvin    Cal/Mol-Kelvin
 Total                  164.640             55.473            117.521
 Electronic               0.000              0.000              0.000
 Translational            0.889              2.981             41.801
 Rotational               0.889              2.981             31.773
 Vibrational            162.862             49.512             43.947
 Vibration     1          0.595              1.978              4.825
 Vibration     2          0.597              1.972              4.350
 Vibration     3          0.602              1.957              3.680
 Vibration     4          0.602              1.955              3.621
 Vibration     5          0.614              1.916              2.843
 Vibration     6          0.628              1.871              2.366
 Vibration     7          0.637              1.844              2.157
 Vibration     8          0.642              1.827              2.054
 Vibration     9          0.651              1.799              1.899
 Vibration    10          0.655              1.788              1.842
 Vibration    11          0.683              1.702              1.504
 Vibration    12          0.709              1.627              1.289
 Vibration    13          0.723              1.585              1.189
 Vibration    14          0.746              1.524              1.060
 Vibration    15          0.772              1.454              0.935
 Vibration    16          0.776              1.444              0.920
 Vibration    17          0.827              1.317              0.738
 Vibration    18          0.842              1.281              0.693
 Vibration    19          0.880              1.195              0.599
 Vibration    20          0.910              1.130              0.535
 Vibration    21          0.972              1.004              0.428

                           ! Non-Optimized Parameters !
 Normal termination of Gaussian 16 at Sat May 20 20:11:34 2023.
