 Gaussian 16, Revision A.03,
 Gaussian 16:  ES64L-G16RevA.03 25-Dec-2016

 -----------------------------
 # opt freq b3lyp/6-31g(2df,p)
 -----------------------------

 -------------------
 Title Card Required
 -------------------
 Symbolic Z-matrix:
 Charge =  0 Multiplicity = 1

 SCF Done:  E(RB3LYP) =  -1237.20117571     A.U. after   21 cycles
 SCF Done:  E(RB3LYP) =  -1237.25680127     A.U. after   15 cycles
 SCF Done:  E(RB3LYP) =  -1237.30917818     A.U. after   16 cycles
 SCF Done:  E(RB3LYP) =  -1237.34194800     A.U. after   15 cycles
 SCF Done:  E(RB3LYP) =  -1237.36959533     A.U. after   17 cycles
 SCF Done:  E(RB3LYP) =  -1237.37767901     A.U. after   17 cycles
 SCF Done:  E(RB3LYP) =  -1237.38543546     A.U. after   17 cycles
 SCF Done:  E(RB3LYP) =  -1237.38948779     A.U. after   17 cycles
 SCF Done:  E(RB3LYP) =  -1237.39394107     A.U. after   17 cycles
 SCF Done:  E(RB3LYP) =  -1237.39623997     A.U. after   16 cycles
 SCF Done:  E(RB3LYP) =  -1237.40850953     A.U. after   14 cycles
 SCF Done:  E(RB3LYP) =  -1237.40851486     A.U. after   11 cycles
 SCF Done:  E(RB3LYP) =  -1237.40852957     A.U. after   15 cycles
 SCF Done:  E(RB3LYP) =  -1237.40853270     A.U. after   13 cycles
 SCF Done:  E(RB3LYP) =  -1237.40853504     A.U. after   12 cycles
 SCF Done:  E(RB3LYP) =  -1237.40853697     A.U. after   14 cycles
 SCF Done:  E(RB3LYP) =  -1237.40853789     A.U. after   10 cycles
 SCF Done:  E(RB3LYP) =  -1237.40853819     A.U. after   11 cycles
 SCF Done:  E(RB3LYP) =  -1237.40853839     A.U. after   10 cycles
 Optimization completed.
    -- Stationary point found.
 Normal termination of Gaussian 16 at Wed May 17 04:32:18 2023.

 ----------------------------------------------------------------------
 #N Geom=AllCheck Guess=TCheck SCRF=Check GenChk RB3LYP/6-31G(2df,p) Fr
 eq
 ----------------------------------------------------------------------

 Structure from the checkpoint file:  "CdC1CdCCdC2CdCCdCd[SH]S2dN1.chk"
 -------------------
 Title Card Required
 -------------------
 Charge =  0 Multiplicity = 1

                         Standard orientation:
 ---------------------------------------------------------------------
 Center     Atomic      Atomic             Coordinates (Angstroms)
 Number     Number       Type             X           Y           Z
 ---------------------------------------------------------------------
      1          6           0        4.753628   -0.978102   -0.432298
      2          6           0        3.530428   -0.449356   -0.136704
      3          6           0        3.470719    0.949261    0.291723
      4          6           0        2.419201    1.784112    0.490371
      5          6           0        1.004384    1.599976    0.406203
      6          6           0        0.302289    0.447685    0.198036
      7          6           0       -1.099821    0.305741   -0.031071
      8          6           0       -1.932406    1.322686   -0.457424
      9          6           0       -3.330822    1.258890   -0.670886
     10          6           0       -4.180632    0.181376   -0.652029
     11         16           0       -4.291974   -0.996671    0.521538
     12         16           0        0.958036   -1.207566    0.052510
     13          7           0        2.502241   -1.346654   -0.288309
     14          1           0        5.658465   -0.389422   -0.343558
     15          1           0        4.834983   -2.005538   -0.762667
     16          1           0        4.456991    1.387679    0.409715
     17          1           0        2.702445    2.800957    0.756347
     18          1           0        0.407685    2.496675    0.547725
     19          1           0       -1.526292   -0.681737    0.127754
     20          1           0       -1.460517    2.260228   -0.740747
     21          1           0       -3.768623    2.172232   -1.079992
     22          1           0       -5.099622   -1.880328   -0.116714
 ---------------------------------------------------------------------

 SCF Done:  E(RB3LYP) =  -1237.40853839     A.U. after    3 cycles

 The electronic state is 1-A.
 Alpha  occ. eigenvalues --  -88.93899 -88.93171 -14.34529 -10.23450 -10.22995
 Alpha  occ. eigenvalues --  -10.21915 -10.21737 -10.21299 -10.20943 -10.20147
 Alpha  occ. eigenvalues --  -10.18657 -10.17549 -10.17424  -7.99504  -7.99484
 Alpha  occ. eigenvalues --   -5.95966  -5.95812  -5.95515  -5.95459  -5.95332
 Alpha  occ. eigenvalues --   -5.95328  -0.93614  -0.85121  -0.83008  -0.80396
 Alpha  occ. eigenvalues --   -0.78502  -0.74393  -0.69367  -0.68691  -0.63610
 Alpha  occ. eigenvalues --   -0.60398  -0.56276  -0.53024  -0.51661  -0.49713
 Alpha  occ. eigenvalues --   -0.46764  -0.45837  -0.43251  -0.42901  -0.41261
 Alpha  occ. eigenvalues --   -0.40842  -0.40207  -0.38758  -0.38113  -0.36500
 Alpha  occ. eigenvalues --   -0.35382  -0.33592  -0.32898  -0.30978  -0.30394
 Alpha  occ. eigenvalues --   -0.26518  -0.24599  -0.20004  -0.16261
 Alpha virt. eigenvalues --   -0.13201  -0.07762  -0.02969   0.02125   0.04017
 Alpha virt. eigenvalues --    0.04795   0.05801   0.07665   0.09627   0.10164
 Alpha virt. eigenvalues --    0.11233   0.13008   0.13644   0.14459   0.15242

 Mulliken charges:
               1
     1  C   -0.315459
     2  C    0.365878
     3  C   -0.176249
     4  C   -0.067541
     5  C   -0.231184
     6  C    0.143820
     7  C   -0.151920
     8  C   -0.091065
     9  C   -0.102504
    10  C   -0.083967
    11  S   -0.097720
    12  S    0.062766
    13  N   -0.317762
    14  H    0.130727
    15  H    0.137717
    16  H    0.081654
    17  H    0.090255
    18  H    0.085743
    19  H    0.130895
    20  H    0.106639
    21  H    0.127363
    22  H    0.171913
 Sum of Mulliken charges =  -0.00000

 Dipole moment (field-independent basis, Debye):
    X=             -0.9471    Y=              0.5106    Z=              0.3225  Tot=              1.1232
 Quadrupole moment (field-independent basis, Debye-Ang):
   XX=            -75.5666   YY=            -83.8920   ZZ=            -94.0744
   XY=              4.7569   XZ=             -2.0111   YZ=             -0.8429

  Exact polarizability: 582.368 -19.631 168.481   4.489   0.337  81.061
 Approx polarizability:3275.480-475.579 423.205 101.456 -15.920 153.214
