 Gaussian 16, Revision A.03,
 Gaussian 16:  ES64L-G16RevA.03 25-Dec-2016

 -----------------------------
 # opt freq b3lyp/6-31g(2df,p)
 -----------------------------

 -------------------
 Title Card Required
 -------------------
 Symbolic Z-matrix:
 Charge =  0 Multiplicity = 1

 SCF Done:  E(RB3LYP) =  -573.432180522     A.U. after   23 cycles
 SCF Done:  E(RB3LYP) =  -573.528271903     A.U. after   16 cycles
 SCF Done:  E(RB3LYP) =  -573.683664776     A.U. after   15 cycles
 SCF Done:  E(RB3LYP) =  -573.657484439     A.U. after   21 cycles
 SCF Done:  E(RB3LYP) =  -573.686282279     A.U. after   17 cycles
 SCF Done:  E(RB3LYP) =  -573.701892359     A.U. after   15 cycles
 SCF Done:  E(RB3LYP) =  -573.731214571     A.U. after   15 cycles
 SCF Done:  E(RB3LYP) =  -573.735647659     A.U. after   14 cycles
 SCF Done:  E(RB3LYP) =  -573.757213971     A.U. after   11 cycles
 SCF Done:  E(RB3LYP) =  -573.770626749     A.U. after   13 cycles
 SCF Done:  E(RB3LYP) =  -573.862842169     A.U. after   10 cycles
 SCF Done:  E(RB3LYP) =  -573.862855352     A.U. after    9 cycles
 SCF Done:  E(RB3LYP) =  -573.862866592     A.U. after   10 cycles
 SCF Done:  E(RB3LYP) =  -573.862875041     A.U. after   10 cycles
 SCF Done:  E(RB3LYP) =  -573.862881824     A.U. after    9 cycles
 SCF Done:  E(RB3LYP) =  -573.862885080     A.U. after    8 cycles
 SCF Done:  E(RB3LYP) =  -573.862887565     A.U. after    8 cycles
 SCF Done:  E(RB3LYP) =  -573.862888388     A.U. after    8 cycles
 SCF Done:  E(RB3LYP) =  -573.862888521     A.U. after    7 cycles
 Optimization completed.
    -- Stationary point found.

 The electronic state is 1-A.
 Alpha  occ. eigenvalues --  -14.39144 -14.34030 -10.24173 -10.22280 -10.21974
 Alpha  occ. eigenvalues --  -10.21719 -10.21054 -10.20292 -10.20263 -10.19851
 Alpha  occ. eigenvalues --  -10.19262 -10.18832 -10.18330 -10.17744  -0.97859
 Alpha  occ. eigenvalues --   -0.93925  -0.83981  -0.81004  -0.77887  -0.75654
 Alpha  occ. eigenvalues --   -0.71167  -0.68721  -0.65240  -0.62054  -0.59622
 Alpha  occ. eigenvalues --   -0.59009  -0.53450  -0.52355  -0.49135  -0.48772
 Alpha  occ. eigenvalues --   -0.46209  -0.45436  -0.44094  -0.43816  -0.42242
 Alpha  occ. eigenvalues --   -0.41611  -0.40873  -0.39584  -0.38722  -0.37950
 Alpha  occ. eigenvalues --   -0.36730  -0.34418  -0.33348  -0.29521  -0.29099
 Alpha  occ. eigenvalues --   -0.27003  -0.23561  -0.21732  -0.18712
 Alpha virt. eigenvalues --   -0.05595  -0.04207  -0.00182   0.03513   0.05291
 Alpha virt. eigenvalues --    0.07832   0.09727   0.10299   0.12523   0.13500
 Alpha virt. eigenvalues --    0.14062   0.14217   0.14458   0.15787   0.17249

 Mulliken charges:
               1
     1  C   -0.396815
     2  C    0.175745
     3  C   -0.072270
     4  N   -0.183422
     5  C   -0.100707
     6  C    0.250581
     7  C   -0.333218
     8  C   -0.062026
     9  C   -0.116027
    10  C   -0.172148
    11  N   -0.075318
    12  C   -0.038880
    13  C    0.165766
    14  C   -0.473914
    15  H    0.119650
    16  H    0.116115
    17  H    0.127955
    18  H    0.111020
    19  H    0.123269
    20  H    0.123896
    21  H    0.101265
    22  H    0.096678
    23  H    0.125317
    24  H    0.128809
    25  H    0.128286
    26  H    0.130390
 Sum of Mulliken charges =  -0.00000

 Dipole moment (field-independent basis, Debye):
    X=             -1.4271    Y=             -0.9584    Z=             -2.4768  Tot=              3.0149
 Quadrupole moment (field-independent basis, Debye-Ang):
   XX=            -72.1935   YY=            -84.6680   ZZ=            -82.4062
   XY=             -4.2916   XZ=             -4.0140   YZ=              0.2560

 Normal termination of Gaussian 16 at Sat May 20 05:43:03 2023.

 ----------------------------------------------------------------------
 #N Geom=AllCheck Guess=TCheck SCRF=Check GenChk RB3LYP/6-31G(2df,p) Fr
 eq
 ----------------------------------------------------------------------

 Structure from the checkpoint file:  "CdC1CdNCdC2CCdCCqdN2rCdC1C.chk"
 -------------------
 Title Card Required
 -------------------
 Charge =  0 Multiplicity = 1

                         Standard orientation:
 ---------------------------------------------------------------------
 Center     Atomic      Atomic             Coordinates (Angstroms)
 Number     Number       Type             X           Y           Z
 ---------------------------------------------------------------------
      1          6           0       -3.220262   -0.810894   -0.748855
      2          6           0       -2.164353   -0.406641   -0.031035
      3          6           0       -1.602570   -1.367934    0.972643
      4          7           0       -0.487176   -1.970249    0.936975
      5          6           0        0.441731   -1.741839   -0.070799
      6          6           0        1.048706   -0.590195   -0.376212
      7          6           0        2.251605   -0.519457   -1.271747
      8          6           0        3.411462    0.000073   -0.461504
      9          6           0        3.158158    0.730423    0.643843
     10          6           0        1.854780    1.345226    0.833497
     11          7           0        0.820458    0.664158    0.313373
     12          6           0       -0.398903    1.383088    0.206387
     13          6           0       -1.658072    0.980179   -0.037741
     14          6           0       -2.689340    2.061941   -0.287408
     15          1           0       -3.619505   -1.814216   -0.643423
     16          1           0       -3.706018   -0.171242   -1.476324
     17          1           0       -2.253764   -1.592384    1.821872
     18          1           0        0.789131   -2.649578   -0.558735
     19          1           0        2.072084    0.131113   -2.144637
     20          1           0        2.472657   -1.514912   -1.667918
     21          1           0        4.421635   -0.185319   -0.819272
     22          1           0        3.969172    1.090787    1.269188
     23          1           0       -0.192017    2.440278    0.322470
     24          1           0       -2.269176    3.055818   -0.117677
     25          1           0       -3.564367    1.933517    0.358420
     26          1           0       -3.050465    2.034945   -1.322801
 ---------------------------------------------------------------------

 SCF Done:  E(RB3LYP) =  -573.862888521     A.U. after    1 cycles
