 Gaussian 16, Revision A.03,
 Gaussian 16:  ES64L-G16RevA.03 25-Dec-2016

 -----------------------------
 # opt freq b3lyp/6-31g(2df,p)
 -----------------------------

 -------------------
 Title Card Required
 -------------------
 Symbolic Z-matrix:
 Charge =  0 Multiplicity = 1

 SCF Done:  E(RB3LYP) =  -1292.77156910     A.U. after   18 cycles
 SCF Done:  E(RB3LYP) =  -1292.80259455     A.U. after   14 cycles
 SCF Done:  E(RB3LYP) =  -1292.81930248     A.U. after   14 cycles
 SCF Done:  E(RB3LYP) =  -1292.82157861     A.U. after   13 cycles
 SCF Done:  E(RB3LYP) =  -1292.82193153     A.U. after   12 cycles
 SCF Done:  E(RB3LYP) =  -1292.82229019     A.U. after   11 cycles
 SCF Done:  E(RB3LYP) =  -1292.82241253     A.U. after   11 cycles
 SCF Done:  E(RB3LYP) =  -1292.82248175     A.U. after   11 cycles
 SCF Done:  E(RB3LYP) =  -1292.82251013     A.U. after   10 cycles
 SCF Done:  E(RB3LYP) =  -1292.82252573     A.U. after   11 cycles
 SCF Done:  E(RB3LYP) =  -1292.82253018     A.U. after    8 cycles
 SCF Done:  E(RB3LYP) =  -1292.82253105     A.U. after    8 cycles
 SCF Done:  E(RB3LYP) =  -1292.82253128     A.U. after    7 cycles
 Optimization completed.
    -- Stationary point found.
 Normal termination of Gaussian 16 at Sat May 20 06:04:32 2023.

 ----------------------------------------------------------------------
 #N Geom=AllCheck Guess=TCheck SCRF=Check GenChk RB3LYP/6-31G(2df,p) Fr
 eq
 ----------------------------------------------------------------------

 Structure from the checkpoint file:  "CdC1CdCSC2dCNdCC2dCCd[SH]N1.chk"
 -------------------
 Title Card Required
 -------------------
 Charge =  0 Multiplicity = 1

                         Standard orientation:
 ---------------------------------------------------------------------
 Center     Atomic      Atomic             Coordinates (Angstroms)
 Number     Number       Type             X           Y           Z
 ---------------------------------------------------------------------
      1          6           0        4.116365   -1.073214    0.627752
      2          6           0        2.838259   -0.667996    0.511970
      3          6           0        1.771104   -1.497232   -0.065514
      4          6           0        0.476726   -1.256124    0.203021
      5         16           0       -0.931287   -1.842615   -0.661068
      6          6           0       -2.111999   -0.625785   -0.157617
      7          6           0       -3.380914   -0.893110    0.271544
      8          7           0       -4.056911    0.253056    0.710666
      9          6           0       -3.196240    1.230898    0.619843
     10          6           0       -1.925892    0.816092    0.045181
     11          6           0       -0.845594    1.639201   -0.153000
     12          6           0        0.269503    1.378883   -0.989611
     13         16           0        1.859010    1.673650   -0.577265
     14          7           0        2.417909    0.631784    0.911838
     15          1           0        4.392167   -2.100797    0.425460
     16          1           0        4.902495   -0.405862    0.963531
     17          1           0        2.071820   -2.248678   -0.789346
     18          1           0        0.231154   -0.529982    0.966813
     19          1           0       -3.862939   -1.859693    0.329942
     20          1           0       -3.444498    2.247102    0.909667
     21          1           0       -0.856784    2.598288    0.370533
     22          1           0        0.203636    0.615125   -1.754045
     23          1           0        1.713739    2.738469    0.250672
     24          1           0        3.210743    1.145928    1.301140
 ---------------------------------------------------------------------

 SCF Done:  E(RB3LYP) =  -1292.82253128     A.U. after    1 cycles

 The electronic state is 1-A.
 Alpha  occ. eigenvalues --  -88.99843 -88.89443 -14.36719 -14.30230 -10.23679
 Alpha  occ. eigenvalues --  -10.22785 -10.21801 -10.21553 -10.20098 -10.19958
 Alpha  occ. eigenvalues --  -10.19483 -10.19384 -10.19327 -10.18210  -8.05255
 Alpha  occ. eigenvalues --   -7.95515  -6.01553  -6.01536  -6.01036  -5.91978
 Alpha  occ. eigenvalues --   -5.91619  -5.91168  -0.94087  -0.93395  -0.85793
 Alpha  occ. eigenvalues --   -0.82801  -0.78511  -0.77082  -0.72839  -0.68886
 Alpha  occ. eigenvalues --   -0.68359  -0.61923  -0.59419  -0.55920  -0.54861
 Alpha  occ. eigenvalues --   -0.53610  -0.50982  -0.49409  -0.47470  -0.46804
 Alpha  occ. eigenvalues --   -0.45536  -0.43792  -0.41471  -0.41145  -0.40019
 Alpha  occ. eigenvalues --   -0.39172  -0.38339  -0.37917  -0.36888  -0.34675
 Alpha  occ. eigenvalues --   -0.32771  -0.31587  -0.29610  -0.26236  -0.24799
 Alpha  occ. eigenvalues --   -0.23367  -0.21436  -0.19047
 Alpha virt. eigenvalues --   -0.08916  -0.04160  -0.01661  -0.00052   0.03461
 Alpha virt. eigenvalues --    0.04859   0.07038   0.07842   0.07947   0.09060
 Alpha virt. eigenvalues --    0.10492   0.11558   0.13291   0.13856   0.15196

 Mulliken charges:
               1
     1  C   -0.423913
     2  C    0.351165
     3  C   -0.181967
     4  C   -0.075203
     5  S   -0.123663
     6  C    0.007143
     7  C   -0.090098
     8  N   -0.248276
     9  C   -0.083292
    10  C    0.202957
    11  C   -0.168488
    12  C   -0.204188
    13  S    0.148235
    14  N   -0.458335
    15  H    0.115897
    16  H    0.099079
    17  H    0.108708
    18  H    0.148451
    19  H    0.115641
    20  H    0.103149
    21  H    0.101464
    22  H    0.157010
    23  H    0.163325
    24  H    0.235199
 Sum of Mulliken charges =  -0.00000

 Dipole moment (field-independent basis, Debye):
    X=              5.8836    Y=              3.1996    Z=             -0.1186  Tot=              6.6984
 Quadrupole moment (field-independent basis, Debye-Ang):
   XX=           -104.9368   YY=            -86.0228   ZZ=            -98.5791
   XY=              5.2820   XZ=              4.1056   YZ=              3.8394

  Exact polarizability: 322.416  -3.873 158.626  -0.431   6.069  94.372
 Approx polarizability: 651.835  10.010 272.150  -5.224   5.834 180.496

                      1                      2                      3
                      A                      A                      A
 Frequencies --     59.7086               100.1613               131.0274
 Red. masses --      6.0563                 5.4426                 6.2657
 Frc consts  --      0.0127                 0.0322                 0.0634
 IR Inten    --      0.2770                 0.6288                 8.5945

                      4                      5                      6
                      A                      A                      A
 Frequencies --    145.4773               178.7716               199.1623
 Red. masses --      4.2014                 4.7813                 3.2677
 Frc consts  --      0.0524                 0.0900                 0.0764
 IR Inten    --      0.7046                 3.7273                 7.6531

                      7                      8                      9
                      A                      A                      A
 Frequencies --    244.5834               249.0242               266.4457
 Red. masses --      4.9181                 4.8116                 5.2297
 Frc consts  --      0.1733                 0.1758                 0.2187
 IR Inten    --     32.2928                13.4154                 1.9294

                     10                     11                     12
                      A                      A                      A
 Frequencies --    305.9266               319.9847               348.2441
 Red. masses --      5.2797                 5.7397                 4.0184
 Frc consts  --      0.2911                 0.3463                 0.2871
 IR Inten    --      7.8922                22.2867                 6.8621

                     13                     14                     15
                      A                      A                      A
 Frequencies --    356.6408               370.1990               422.3212
 Red. masses --      6.9801                 3.7482                 3.5320
 Frc consts  --      0.5231                 0.3027                 0.3712
 IR Inten    --     15.4009                 2.4096                 7.0914

                     16                     17                     18
                      A                      A                      A
 Frequencies --    463.1455               518.7677               544.2347
 Red. masses --      3.0176                 7.0106                 3.0445
 Frc consts  --      0.3814                 1.1116                 0.5313
 IR Inten    --     11.4418                 1.4708                20.6060

                     19                     20                     21
                      A                      A                      A
 Frequencies --    612.9707               627.3352               668.0492
 Red. masses --      3.1663                 2.0920                 2.5690
 Frc consts  --      0.7009                 0.4851                 0.6755
 IR Inten    --     19.5608                 2.7413                 3.7738

                     22                     23                     24
                      A                      A                      A
 Frequencies --    694.7255               726.8718               760.4324
 Red. masses --      1.5375                 1.8675                 1.9492
 Frc consts  --      0.4372                 0.5813                 0.6641
 IR Inten    --     43.7721                69.3043                46.0771

                     25                     26                     27
                      A                      A                      A
 Frequencies --    792.5890               828.4269               838.2793
 Red. masses --      2.0394                 1.9644                 1.4650
 Frc consts  --      0.7548                 0.7943                 0.6066
 IR Inten    --     33.5735                10.1982                24.5549

                     28                     29                     30
                      A                      A                      A
 Frequencies --    841.3940               853.5591               853.9734
 Red. masses --      1.9876                 2.2142                 4.3983
 Frc consts  --      0.8290                 0.9504                 1.8898
 IR Inten    --     78.5181                 0.2871                31.5822

                     31                     32                     33
                      A                      A                      A
 Frequencies --    864.1603               874.6210               882.9991
 Red. masses --      1.7177                 1.9569                 1.8520
 Frc consts  --      0.7558                 0.8820                 0.8508
 IR Inten    --     18.7225                98.5338                23.3222

                     34                     35                     36
                      A                      A                      A
 Frequencies --    903.4577               964.3239               985.2423
 Red. masses --      2.1808                 1.7556                 1.7366
 Frc consts  --      1.0488                 0.9619                 0.9932
 IR Inten    --     69.1905                 0.7923                 9.7048

                     37                     38                     39
                      A                      A                      A
 Frequencies --   1016.6589              1048.6020              1076.3113
 Red. masses --      1.1155                 1.4806                 2.3914
 Frc consts  --      0.6793                 0.9592                 1.6322
 IR Inten    --     29.4471                22.0023                20.3260

                     40                     41                     42
                      A                      A                      A
 Frequencies --   1085.1896              1179.6009              1233.5481
 Red. masses --      4.2805                 1.9664                 1.8940
 Frc consts  --      2.9700                 1.6121                 1.6980
 IR Inten    --     34.3464                10.9250               103.9813

                     43                     44                     45
                      A                      A                      A
 Frequencies --   1239.8384              1257.7815              1271.5568
 Red. masses --      1.4194                 1.3380                 1.4328
 Frc consts  --      1.2856                 1.2472                 1.3649
 IR Inten    --     60.0874                24.9451                32.7930

                     46                     47                     48
                      A                      A                      A
 Frequencies --   1298.7132              1317.9860              1320.7793
 Red. masses --      1.7358                 1.8960                 1.2662
 Frc consts  --      1.7249                 1.9404                 1.3014
 IR Inten    --     19.9052                10.5860                 0.8667

                     49                     50                     51
                      A                      A                      A
 Frequencies --   1330.5299              1407.0906              1447.1654
 Red. masses --      2.1910                 2.0866                 1.2501
 Frc consts  --      2.2852                 2.4341                 1.5425
 IR Inten    --      4.5987                71.1487                 9.9542

                     52                     53                     54
                      A                      A                      A
 Frequencies --   1480.0306              1558.9952              1610.2519
 Red. masses --      5.8164                 5.0244                 6.5135
 Frc consts  --      7.5066                 7.1949                 9.9507
 IR Inten    --    128.9497                30.7597               216.8586

                     55                     56                     57
                      A                      A                      A
 Frequencies --   1617.9190              1663.6686              2571.1468
 Red. masses --      5.4084                 5.2121                 1.0375
 Frc consts  --      8.3413                 8.4995                 4.0411
 IR Inten    --    106.8900               157.4470                15.9082

                     58                     59                     60
                      A                      A                      A
 Frequencies --   3093.2284              3156.1920              3174.4041
 Red. masses --      1.0858                 1.0604                 1.0896
 Frc consts  --      6.1208                 6.2238                 6.4690
 IR Inten    --     15.0365                 1.3786                 3.9106

                     61                     62                     63
                      A                      A                      A
 Frequencies --   3180.4878              3209.3524              3216.4111
 Red. masses --      1.0931                 1.0865                 1.0880
 Frc consts  --      6.5145                 6.5932                 6.6319
 IR Inten    --     17.3158                 2.2973                 0.8070

                     64                     65                     66
                      A                      A                      A
 Frequencies --   3227.5405              3244.7377              3448.1348
 Red. masses --      1.0952                 1.1150                 1.0741
 Frc consts  --      6.7220                 6.9163                 7.5239
 IR Inten    --      6.1664                 5.7931                 4.6568

 - Thermochemistry -
 -------------------
 Temperature   298.150 Kelvin.  Pressure   1.00000 Atm.
 Atom     1 has atomic number  6 and mass  12.00000

 Molecular mass:   222.02854 amu.
 Principal axes and moments of inertia in atomic units:
                           1         2         3
     Eigenvalues --  1706.256704732.786345880.82450
           X            0.99992  -0.01184   0.00399
           Y            0.01180   0.99987   0.01068
           Z           -0.00411  -0.01064   0.99993
 This molecule is an asymmetric top.
 Rotational symmetry number  1.
 Warning -- assumption of classical behavior for rotation
           may cause significant error
 Rotational temperatures (Kelvin)      0.05076     0.01830     0.01473
 Rotational constants (GHZ):           1.05772     0.38133     0.30689
 Zero-point vibrational energy     465234.2 (Joules/Mol)
                                  111.19365 (Kcal/Mol)
 Warning -- explicit consideration of  19 degrees of freedom as
           vibrations may cause significant error
 Vibrational temperatures:     85.91   144.11   188.52   209.31   257.21
          (Kelvin)            286.55   351.90   358.29   383.36   440.16
                              460.39   501.05   513.13   532.63   607.63
                              666.36   746.39   783.03   881.93   902.60
                              961.17   999.55  1045.81  1094.09  1140.36
                             1191.92  1206.10  1210.58  1228.08  1228.68
                             1243.33  1258.38  1270.44  1299.87  1387.45
                             1417.54  1462.75  1508.70  1548.57  1561.35
                             1697.18  1774.80  1783.85  1809.67  1829.49
                             1868.56  1896.29  1900.31  1914.34  2024.49
                             2082.15  2129.43  2243.05  2316.79  2327.82
                             2393.65  3699.31  4450.47  4541.06  4567.26
                             4576.01  4617.54  4627.70  4643.71  4668.45
                             4961.10

 Zero-point correction=                           0.177198 (Hartree/Particle)
 Thermal correction to Energy=                    0.190046
 Thermal correction to Enthalpy=                  0.190991
 Thermal correction to Gibbs Free Energy=         0.138265
 Sum of electronic and zero-point Energies=          -1292.645333
 Sum of electronic and thermal Energies=             -1292.632485
 Sum of electronic and thermal Enthalpies=           -1292.631541
 Sum of electronic and thermal Free Energies=        -1292.684266

                     E (Thermal)             CV                S
                      KCal/Mol        Cal/Mol-Kelvin    Cal/Mol-Kelvin
 Total                  119.256             50.713            110.970
 Electronic               0.000              0.000              0.000
 Translational            0.889              2.981             42.096
 Rotational               0.889              2.981             32.229
 Vibrational            117.478             44.751             36.645
 Vibration     1          0.597              1.974              4.467
 Vibration     2          0.604              1.949              3.451
 Vibration     3          0.612              1.922              2.931
 Vibration     4          0.617              1.908              2.731
 Vibration     5          0.629              1.868              2.341
 Vibration     6          0.637              1.841              2.141
 Vibration     7          0.660              1.772              1.769
 Vibration     8          0.662              1.764              1.737
 Vibration     9          0.672              1.735              1.619
 Vibration    10          0.696              1.662              1.384
 Vibration    11          0.706              1.635              1.310
 Vibration    12          0.726              1.579              1.174
 Vibration    13          0.732              1.562              1.137
 Vibration    14          0.742              1.533              1.079
 Vibration    15          0.785              1.422              0.884
 Vibration    16          0.821              1.332              0.757
 Vibration    17          0.874              1.208              0.613
 Vibration    18          0.899              1.152              0.556
 Vibration    19          0.972              1.004              0.428

                           ! Non-Optimized Parameters !
 Normal termination of Gaussian 16 at Sat May 20 07:25:56 2023.
