 Gaussian 16, Revision A.03,
 Gaussian 16:  ES64L-G16RevA.03 25-Dec-2016

 -----------------------------
 # opt freq b3lyp/6-31g(2df,p)
 -----------------------------

 -------------------
 Title Card Required
 -------------------
 Symbolic Z-matrix:
 Charge =  0 Multiplicity = 1

 SCF Done:  E(RB3LYP) =  -2698.62897126     A.U. after   23 cycles
 SCF Done:  E(RB3LYP) =  -2698.66447447     A.U. after   15 cycles
 SCF Done:  E(RB3LYP) =  -2698.68521239     A.U. after   15 cycles
 SCF Done:  E(RB3LYP) =  -2698.69753512     A.U. after   17 cycles
 SCF Done:  E(RB3LYP) =  -2698.70690754     A.U. after   15 cycles
 SCF Done:  E(RB3LYP) =  -2698.71741378     A.U. after   17 cycles
 SCF Done:  E(RB3LYP) =  -2698.72512331     A.U. after   15 cycles
 SCF Done:  E(RB3LYP) =  -2698.72735134     A.U. after   15 cycles
 SCF Done:  E(RB3LYP) =  -2698.72865390     A.U. after   14 cycles
 SCF Done:  E(RB3LYP) =  -2698.72851734     A.U. after   14 cycles
 SCF Done:  E(RB3LYP) =  -2698.72929569     A.U. after   13 cycles
 SCF Done:  E(RB3LYP) =  -2698.72945868     A.U. after   14 cycles
 SCF Done:  E(RB3LYP) =  -2698.72954246     A.U. after   13 cycles
 SCF Done:  E(RB3LYP) =  -2698.72962687     A.U. after   11 cycles
 SCF Done:  E(RB3LYP) =  -2698.72964039     A.U. after   11 cycles
 SCF Done:  E(RB3LYP) =  -2698.72964334     A.U. after   11 cycles
 SCF Done:  E(RB3LYP) =  -2698.72964473     A.U. after   10 cycles
 SCF Done:  E(RB3LYP) =  -2698.72964498     A.U. after    8 cycles
 SCF Done:  E(RB3LYP) =  -2698.72964507     A.U. after    8 cycles
 Optimization completed.
    -- Stationary point found.
 Normal termination of Gaussian 16 at Wed May 17 10:39:46 2023.

 ----------------------------------------------------------------------
 #N Geom=AllCheck Guess=TCheck SCRF=Check GenChk RB3LYP/6-31G(2df,p) Fr
 eq
 ----------------------------------------------------------------------

 Structure from the checkpoint file:  "CdC1CdCCdCdC1SCqSrSSSS.chk"
 -------------------
 Title Card Required
 -------------------
 Charge =  0 Multiplicity = 1

                         Standard orientation:
 ---------------------------------------------------------------------
 Center     Atomic      Atomic             Coordinates (Angstroms)
 Number     Number       Type             X           Y           Z
 ---------------------------------------------------------------------
      1          6           0       -4.177444   -0.341280    2.145737
      2          6           0       -3.859608   -0.591904    0.859865
      3          6           0       -4.877006   -0.941343   -0.141837
      4          6           0       -4.550771   -1.317503   -1.401595
      5          6           0       -3.143030   -1.588699   -1.676369
      6          6           0       -2.234022   -0.995492   -0.881623
      7          6           0       -2.518528   -0.367786    0.271303
      8         16           0       -1.569812    0.960442    0.956850
      9          6           0       -0.099727    0.927550   -0.131928
     10         16           0       -0.048074    2.204714   -1.418208
     11         16           0        1.308289    0.865607    1.072391
     12         16           0        3.028549    1.012168   -0.056502
     13         16           0        3.460148   -0.878855   -0.834719
     14         16           0        4.448644   -1.978917    0.627859
     15          1           0       -5.210343   -0.319441    2.477849
     16          1           0       -3.416127   -0.139090    2.891066
     17          1           0       -5.912209   -0.931607    0.184584
     18          1           0       -5.320670   -1.602491   -2.111869
     19          1           0       -2.897260   -2.376761   -2.385191
     20          1           0       -0.165072   -0.021987   -0.676812
     21          1           0       -0.063982    3.266637   -0.589487
     22          1           0        5.702597   -1.539070    0.385808
 ---------------------------------------------------------------------

 SCF Done:  E(RB3LYP) =  -2698.72964507     A.U. after    1 cycles

 The electronic state is 1-A.
 Alpha  occ. eigenvalues --  -88.91959 -88.91784 -88.90739 -88.90593 -88.90211
 Alpha  occ. eigenvalues --  -88.88516 -10.27891 -10.23812 -10.22859 -10.21885
 Alpha  occ. eigenvalues --  -10.20958 -10.20940 -10.20638 -10.17482  -7.98159
 Alpha  occ. eigenvalues --   -7.97969  -7.96955  -7.96824  -7.96822  -7.95096
 Alpha  occ. eigenvalues --   -5.94663  -5.94452  -5.94303  -5.94101  -5.93616
 Alpha  occ. eigenvalues --   -5.93471  -5.93462  -5.93284  -5.93274  -5.93068
 Alpha  occ. eigenvalues --   -5.92909  -5.92894  -5.92463  -5.92452  -5.92329
 Alpha  occ. eigenvalues --   -5.91560  -5.91204  -5.90600  -0.88126  -0.85066
 Alpha  occ. eigenvalues --   -0.82291  -0.79399  -0.78025  -0.76062  -0.72369
 Alpha  occ. eigenvalues --   -0.69952  -0.67914  -0.63330  -0.59299  -0.58667
 Alpha  occ. eigenvalues --   -0.57066  -0.51051  -0.48789  -0.47674  -0.46086
 Alpha  occ. eigenvalues --   -0.44331  -0.43332  -0.41839  -0.40978  -0.40434
 Alpha  occ. eigenvalues --   -0.39522  -0.38682  -0.38151  -0.37647  -0.36137
 Alpha  occ. eigenvalues --   -0.34707  -0.33385  -0.30496  -0.28944  -0.27988
 Alpha  occ. eigenvalues --   -0.26502  -0.26287  -0.25296  -0.24457  -0.23025
 Alpha  occ. eigenvalues --   -0.20527
 Alpha virt. eigenvalues --   -0.11015  -0.05741  -0.03886  -0.01840  -0.01087
 Alpha virt. eigenvalues --   -0.00871   0.01916   0.02606   0.03262   0.04971
 Alpha virt. eigenvalues --    0.05196   0.08049   0.09682   0.11849   0.12402

 Mulliken charges:
               1
     1  C   -0.382953
     2  C    0.255341
     3  C   -0.124481
     4  C   -0.115341
     5  C   -0.141788
     6  C   -0.150206
     7  C    0.103987
     8  S   -0.065401
     9  C   -0.070952
    10  S   -0.209902
    11  S   -0.038210
    12  S   -0.027584
    13  S   -0.025377
    14  S   -0.165484
    15  H    0.133600
    16  H    0.153267
    17  H    0.112462
    18  H    0.107765
    19  H    0.116954
    20  H    0.187706
    21  H    0.169992
    22  H    0.176603
 Sum of Mulliken charges =  -0.00000

 Dipole moment (field-independent basis, Debye):
    X=             -2.7146    Y=             -0.4291    Z=              0.7725  Tot=              2.8548
 Quadrupole moment (field-independent basis, Debye-Ang):
   XX=            -98.9569   YY=           -123.7222   ZZ=           -123.1231
   XY=              3.1861   XZ=             -2.6407   YZ=              2.7910

  Exact polarizability: 311.849  -1.540 176.694  -9.611  15.919 193.555
 Approx polarizability: 448.649 -10.920 328.465 -54.819  62.146 425.174

                      1                      2                      3
                      A                      A                      A
 Frequencies --     11.8300                22.3194                28.6050
 Red. masses --      9.5338                10.7175                 6.5575
 Frc consts  --      0.0008                 0.0031                 0.0032
 IR Inten    --      0.3558                 0.1889                 0.7631

                      4                      5                      6
                      A                      A                      A
 Frequencies --     35.4592                58.9618               103.9722
 Red. masses --     11.7541                10.4372                 5.8308
 Frc consts  --      0.0087                 0.0214                 0.0371
 IR Inten    --      0.4554                 0.3911                 0.4200

                      7                      8                      9
                      A                      A                      A
 Frequencies --    105.9242               111.4505               150.5866
 Red. masses --      6.1832                15.1997                 8.2840
 Frc consts  --      0.0409                 0.1112                 0.1107
 IR Inten    --      1.0316                 0.5281                 1.1688

                     10                     11                     12
                      A                      A                      A
 Frequencies --    190.2051               199.1486               226.2042
 Red. masses --      3.8908                 4.5963                 4.2040
 Frc consts  --      0.0829                 0.1074                 0.1267
 IR Inten    --      4.5611                 3.6183                 1.8881

                     13                     14                     15
                      A                      A                      A
 Frequencies --    233.9305               249.3131               316.5197
 Red. masses --      3.0590                 2.5669                 2.8578
 Frc consts  --      0.0986                 0.0940                 0.1687
 IR Inten    --      3.3878                16.9044                12.9692

                     16                     17                     18
                      A                      A                      A
 Frequencies --    329.5075               339.3172               378.4328
 Red. masses --      4.5463                 1.7142                 4.3058
 Frc consts  --      0.2908                 0.1163                 0.3633
 IR Inten    --      5.1568                11.3768                19.5529

                     19                     20                     21
                      A                      A                      A
 Frequencies --    400.7632               422.5875               447.7038
 Red. masses --      3.2906                28.1797                 3.6601
 Frc consts  --      0.3114                 2.9650                 0.4322
 IR Inten    --      8.4834                 2.7190                27.8364

                     22                     23                     24
                      A                      A                      A
 Frequencies --    474.1226               479.0719               486.2483
 Red. masses --     11.1319                 8.1807                12.9184
 Frc consts  --      1.4744                 1.1062                 1.7996
 IR Inten    --      3.1305                17.2527                 3.8423

                     25                     26                     27
                      A                      A                      A
 Frequencies --    528.2910               606.6713               642.2368
 Red. masses --      6.4572                 5.2002                 3.7083
 Frc consts  --      1.0618                 1.1276                 0.9012
 IR Inten    --     33.7083                 8.7239                17.6048

                     28                     29                     30
                      A                      A                      A
 Frequencies --    664.0638               685.3435               717.4130
 Red. masses --      1.6925                 6.3788                 2.4678
 Frc consts  --      0.4397                 1.7652                 0.7484
 IR Inten    --     34.7322                68.3521                83.8445

                     31                     32                     33
                      A                      A                      A
 Frequencies --    769.9798               790.4982               808.0003
 Red. masses --      7.0403                 3.2773                 1.8474
 Frc consts  --      2.4592                 1.2066                 0.7106
 IR Inten    --     25.4459                12.9928                30.9142

                     34                     35                     36
                      A                      A                      A
 Frequencies --    858.6645               863.9682               933.9014
 Red. masses --      1.6967                 1.0592                 1.9560
 Frc consts  --      0.7371                 0.4658                 1.0051
 IR Inten    --     19.5983                 5.2947                20.3703

                     37                     38                     39
                      A                      A                      A
 Frequencies --    945.0239               961.2288               970.4115
 Red. masses --      1.2312                 1.3876                 1.4073
 Frc consts  --      0.6478                 0.7554                 0.7808
 IR Inten    --      6.2530                20.2208                22.4232

                     40                     41                     42
                      A                      A                      A
 Frequencies --   1010.0643              1015.2297              1123.1994
 Red. masses --      3.1796                 2.4221                 1.1184
 Frc consts  --      1.9113                 1.4708                 0.8313
 IR Inten    --     97.8798                 7.7620                 2.9528

                     43                     44                     45
                      A                      A                      A
 Frequencies --   1160.0430              1222.7718              1268.3675
 Red. masses --      1.2112                 1.5673                 1.0967
 Frc consts  --      0.9603                 1.3806                 1.0395
 IR Inten    --      7.2242                 2.9098                17.3786

                     46                     47                     48
                      A                      A                      A
 Frequencies --   1287.3722              1378.2483              1399.7860
 Red. masses --      2.5713                 1.5768                 3.2922
 Frc consts  --      2.5108                 1.7647                 3.8007
 IR Inten    --     14.5232                 7.7217                55.9050

                     49                     50                     51
                      A                      A                      A
 Frequencies --   1446.7402              1562.2169              1633.8213
 Red. masses --      1.3417                 5.7861                 4.1981
 Frc consts  --      1.6545                 8.3199                 6.6026
 IR Inten    --     10.1364                38.7416                 7.9661

                     52                     53                     54
                      A                      A                      A
 Frequencies --   1706.1355              2635.2565              2670.5488
 Red. masses --      9.2093                 1.0394                 1.0385
 Frc consts  --     15.7944                 4.2528                 4.3637
 IR Inten    --    104.0574                 1.3011                 0.3024

                     55                     56                     57
                      A                      A                      A
 Frequencies --   3021.3703              3140.8787              3152.1521
 Red. masses --      1.0848                 1.0872                 1.0594
 Frc consts  --      5.8344                 6.3193                 6.2021
 IR Inten    --     17.4278                17.3173                 0.4838

                     58                     59                     60
                      A                      A                      A
 Frequencies --   3171.1284              3190.9119              3242.0064
 Red. masses --      1.0854                 1.0972                 1.1158
 Frc consts  --      6.4307                 6.5819                 6.9100
 IR Inten    --     11.4564                24.4796                 4.7961

 - Thermochemistry -
 -------------------
 Temperature   298.150 Kelvin.  Pressure   1.00000 Atm.
 Atom     1 has atomic number  6 and mass  12.00000

 Molecular mass:   295.89503 amu.
 Principal axes and moments of inertia in atomic units:
                           1         2         3
     Eigenvalues --  2957.68747********************
           X            0.99998   0.00620  -0.00122
           Y           -0.00617   0.99959   0.02786
           Z            0.00140  -0.02785   0.99961
 This molecule is an asymmetric top.
 Rotational symmetry number  1.
 Warning -- assumption of classical behavior for rotation
           may cause significant error
 Rotational temperatures (Kelvin)      0.02928     0.00786     0.00742
 Rotational constants (GHZ):           0.61019     0.16379     0.15467
 Zero-point vibrational energy     352815.4 (Joules/Mol)
                                   84.32491 (Kcal/Mol)
 Warning -- explicit consideration of  26 degrees of freedom as
           vibrations may cause significant error
 Vibrational temperatures:     17.02    32.11    41.16    51.02    84.83
          (Kelvin)            149.59   152.40   160.35   216.66   273.66
                              286.53   325.46   336.57   358.71   455.40
                              474.09   488.20   544.48   576.61   608.01
                              644.15   682.16   689.28   699.60   760.09
                              872.86   924.04   955.44   986.06  1032.20
                             1107.83  1137.35  1162.53  1235.43  1243.06
                             1343.68  1359.68  1382.99  1396.21  1453.26
                             1460.69  1616.03  1669.04  1759.30  1824.90
                             1852.24  1982.99  2013.98  2081.54  2247.68
                             2350.70  2454.75  3791.55  3842.32  4347.08
                             4519.02  4535.24  4562.55  4591.01  4664.52

 Zero-point correction=                           0.134380 (Hartree/Particle)
 Thermal correction to Energy=                    0.151699
 Thermal correction to Enthalpy=                  0.152643
 Thermal correction to Gibbs Free Energy=         0.084400
 Sum of electronic and zero-point Energies=          -2698.595265
 Sum of electronic and thermal Energies=             -2698.577946
 Sum of electronic and thermal Enthalpies=           -2698.577002
 Sum of electronic and thermal Free Energies=        -2698.645245

                     E (Thermal)             CV                S
                      KCal/Mol        Cal/Mol-Kelvin    Cal/Mol-Kelvin
 Total                   95.192             59.898            143.629
 Electronic               0.000              0.000              0.000
 Translational            0.889              2.981             42.952
 Rotational               0.889              2.981             34.296
 Vibrational             93.415             53.936             66.380
 Vibration     1          0.593              1.987              7.677
 Vibration     2          0.593              1.985              6.416
 Vibration     3          0.593              1.984              5.924
 Vibration     4          0.594              1.982              5.498
 Vibration     5          0.596              1.974              4.492
 Vibration     6          0.605              1.946              3.378
 Vibration     7          0.605              1.944              3.342
 Vibration     8          0.607              1.940              3.243
 Vibration     9          0.618              1.902              2.665
 Vibration    10          0.634              1.853              2.226
 Vibration    11          0.637              1.841              2.141
 Vibration    12          0.650              1.801              1.909
 Vibration    13          0.654              1.789              1.849
 Vibration    14          0.662              1.764              1.735
 Vibration    15          0.703              1.642              1.328
 Vibration    16          0.712              1.617              1.262
 Vibration    17          0.719              1.597              1.215
 Vibration    18          0.749              1.516              1.045
 Vibration    19          0.767              1.468              0.960
 Vibration    20          0.785              1.421              0.883
 Vibration    21          0.807              1.366              0.803
 Vibration    22          0.831              1.307              0.726
 Vibration    23          0.836              1.296              0.713
 Vibration    24          0.842              1.281              0.693
 Vibration    25          0.883              1.187              0.591
 Vibration    26          0.965              1.018              0.438

 Optimization completed.
    -- Stationary point found.
 Normal termination of Gaussian 16 at Wed May 17 11:48:29 2023.
