 Gaussian 16, Revision A.03,
 Gaussian 16:  ES64L-G16RevA.03 25-Dec-2016

 -----------------------------
 # opt freq b3lyp/6-31g(2df,p)
 -----------------------------

 -------------------
 Title Card Required
 -------------------
 Symbolic Z-matrix:
 Charge =  0 Multiplicity = 1

 SCF Done:  E(RB3LYP) =  -859.647555528     A.U. after   18 cycles
 SCF Done:  E(RB3LYP) =  -859.715776187     A.U. after   16 cycles
 SCF Done:  E(RB3LYP) =  -859.795474196     A.U. after   17 cycles
 SCF Done:  E(RB3LYP) =  -859.822226161     A.U. after   15 cycles
 SCF Done:  E(RB3LYP) =  -859.825108435     A.U. after   13 cycles
 SCF Done:  E(RB3LYP) =  -859.858987432     A.U. after   17 cycles
 SCF Done:  E(RB3LYP) =  -859.891053387     A.U. after   17 cycles
 SCF Done:  E(RB3LYP) =  -859.926112867     A.U. after   16 cycles
 SCF Done:  E(RB3LYP) =  -859.964430201     A.U. after   15 cycles
 SCF Done:  E(RB3LYP) =  -859.984534748     A.U. after   14 cycles
 SCF Done:  E(RB3LYP) =  -860.112418794     A.U. after   15 cycles
 SCF Done:  E(RB3LYP) =  -860.112843339     A.U. after   15 cycles
 SCF Done:  E(RB3LYP) =  -860.113053139     A.U. after   14 cycles
 SCF Done:  E(RB3LYP) =  -860.113096758     A.U. after   13 cycles
 SCF Done:  E(RB3LYP) =  -860.113119780     A.U. after   10 cycles
 SCF Done:  E(RB3LYP) =  -860.113143373     A.U. after   11 cycles
 SCF Done:  E(RB3LYP) =  -860.113151428     A.U. after   10 cycles
 SCF Done:  E(RB3LYP) =  -860.113159148     A.U. after   10 cycles
 SCF Done:  E(RB3LYP) =  -860.113160065     A.U. after    9 cycles
 Optimization completed.
    -- Stationary point found.
 Normal termination of Gaussian 16 at Thu May 18 23:50:49 2023.

 ----------------------------------------------------------------------
 #N Geom=AllCheck Guess=TCheck SCRF=Check GenChk RB3LYP/6-31G(2df,p) Fr
 eq
 ----------------------------------------------------------------------

 Structure from the checkpoint file:  "Cdc1c2cccsc-2c2c1dCCdC2.chk"
 -------------------
 Title Card Required
 -------------------
 Charge =  0 Multiplicity = 1

                         Standard orientation:
 ---------------------------------------------------------------------
 Center     Atomic      Atomic             Coordinates (Angstroms)
 Number     Number       Type             X           Y           Z
 ---------------------------------------------------------------------
      1          6           0        0.885901    2.957133   -0.054575
      2          6           0        0.732129    1.624004   -0.043377
      3          6           0       -0.579957    0.914576   -0.096344
      4          6           0       -1.846499    1.456659   -0.002766
      5          6           0       -3.016383    0.664974    0.099137
      6          6           0       -3.016938   -0.697278    0.122440
      7         16           0       -1.599448   -1.668178   -0.045680
      8          6           0       -0.339792   -0.495185   -0.128761
      9          6           0        1.057677   -0.739527   -0.107224
     10          6           0        1.745192    0.569436    0.027008
     11          6           0        3.076841    0.409272    0.205187
     12          6           0        3.321341   -1.098777    0.084436
     13          6           0        1.965571   -1.755398   -0.064489
     14          1           0        0.047638    3.642314   -0.114088
     15          1           0        1.877898    3.389637   -0.001215
     16          1           0       -1.954495    2.534165    0.051887
     17          1           0       -3.971356    1.170254    0.205306
     18          1           0       -3.922993   -1.274976    0.258572
     19          1           0        3.902971   -1.548041    0.903421
     20          1           0        3.938082   -1.263021   -0.811619
     21          1           0        1.762926   -2.818817   -0.005429
 ---------------------------------------------------------------------

 SCF Done:  E(RB3LYP) =  -860.113160065     A.U. after    3 cycles

 The electronic state is 1-A.
 Alpha  occ. eigenvalues --  -88.95006 -10.25710 -10.25480 -10.23461 -10.23134
 Alpha  occ. eigenvalues --  -10.22746 -10.19364 -10.19066 -10.18767 -10.17331
 Alpha  occ. eigenvalues --  -10.17200 -10.14485 -10.12782  -8.01103  -5.97495
 Alpha  occ. eigenvalues --   -5.97087  -5.96937  -0.91121  -0.85752  -0.81773
 Alpha  occ. eigenvalues --   -0.79736  -0.75289  -0.71155  -0.67603  -0.65048
 Alpha  occ. eigenvalues --   -0.62904  -0.57641  -0.55703  -0.52066  -0.49744
 Alpha  occ. eigenvalues --   -0.49239  -0.45366  -0.45213  -0.43554  -0.42846
 Alpha  occ. eigenvalues --   -0.40738  -0.40516  -0.38807  -0.37933  -0.35338
 Alpha  occ. eigenvalues --   -0.34999  -0.33501  -0.32671  -0.31599  -0.26731
 Alpha  occ. eigenvalues --   -0.25962  -0.18066  -0.15054
 Alpha virt. eigenvalues --   -0.11521  -0.06770   0.00322   0.01214   0.03398
 Alpha virt. eigenvalues --    0.06010   0.06742   0.11344   0.12093   0.13560
 Alpha virt. eigenvalues --    0.14245   0.15367   0.16227   0.16774   0.17102

 Mulliken charges:
               1
     1  C   -0.422106
     2  C    0.097639
     3  C    0.196116
     4  C   -0.153012
     5  C   -0.064802
     6  C   -0.159859
     7  S    0.050599
     8  C   -0.090429
     9  C    0.256966
    10  C    0.182021
    11  C   -0.345346
    12  C   -0.273371
    13  C   -0.255219
    14  H    0.097006
    15  H    0.131908
    16  H    0.117016
    17  H    0.126553
    18  H    0.149470
    19  H    0.121467
    20  H    0.138696
    21  H    0.098688
 Sum of Mulliken charges =  -0.00000

 Dipole moment (field-independent basis, Debye):
    X=             -6.7385    Y=             -1.6117    Z=             -0.1120  Tot=              6.9295
 Quadrupole moment (field-independent basis, Debye-Ang):
   XX=            -79.8835   YY=            -74.5361   ZZ=            -84.1211
   XY=             -7.4783   XZ=             -2.2356   YZ=             -0.6440

  Exact polarizability: 317.143  10.034 190.151   3.670   1.758  63.640
 Approx polarizability:1351.886 171.319 417.002  68.175  19.763 117.859

                      1                      2                      3
                      A                      A                      A
 Frequencies --     77.4338               130.6200               146.5141
 Red. masses --      4.8759                 4.9487                 3.7168
 Frc consts  --      0.0172                 0.0497                 0.0470
 IR Inten    --      0.7968                 4.5016                10.0485

                      4                      5                      6
                      A                      A                      A
 Frequencies --    208.4803               218.8896               273.0883
 Red. masses --      3.5375                 4.3063                 2.8302
 Frc consts  --      0.0906                 0.1216                 0.1244
 IR Inten    --      5.5758                 2.4717                 0.4543

                      7                      8                      9
                      A                      A                      A
 Frequencies --    287.7686               376.6360               405.9489
 Red. masses --      2.0724                 3.7059                 8.2605
 Frc consts  --      0.1011                 0.3097                 0.8020
 IR Inten    --     12.2208                 8.7138                 6.7833

                     10                     11                     12
                      A                      A                      A
 Frequencies --    422.3877               451.9497               545.1128
 Red. masses --      7.6964                 5.4192                 5.8034
 Frc consts  --      0.8090                 0.6522                 1.0160
 IR Inten    --      7.9486                 2.3152                68.0106

                     13                     14                     15
                      A                      A                      A
 Frequencies --    554.3655               574.3919               613.6050
 Red. masses --      4.0998                 5.2765                 3.7287
 Frc consts  --      0.7423                 1.0257                 0.8272
 IR Inten    --     35.7530               119.9527                49.2652

                     16                     17                     18
                      A                      A                      A
 Frequencies --    647.5227               667.8360               713.8123
 Red. masses --      1.6872                 1.8527                 1.5225
 Frc consts  --      0.4168                 0.4869                 0.4571
 IR Inten    --      7.6362                99.1662                26.7064

                     19                     20                     21
                      A                      A                      A
 Frequencies --    732.9835               742.6442               766.6205
 Red. masses --      4.0253                 2.6357                 3.0948
 Frc consts  --      1.2742                 0.8565                 1.0716
 IR Inten    --      2.2919                27.8033                50.3309

                     22                     23                     24
                      A                      A                      A
 Frequencies --    783.0700               813.1927               831.7240
 Red. masses --      3.2020                 2.6459                 3.1036
 Frc consts  --      1.1568                 1.0309                 1.2650
 IR Inten    --    151.5974                23.6786                32.1190

                     25                     26                     27
                      A                      A                      A
 Frequencies --    882.2446               897.5601               906.0544
 Red. masses --      4.0038                 1.4275                 1.5038
 Frc consts  --      1.8361                 0.6776                 0.7274
 IR Inten    --    123.3542                32.1130                11.1603

                     28                     29                     30
                      A                      A                      A
 Frequencies --    915.3237               932.4074               978.6100
 Red. masses --      2.2926                 3.6050                 1.6813
 Frc consts  --      1.1317                 1.8466                 0.9487
 IR Inten    --     28.4385                 9.6467                 0.2418

                     31                     32                     33
                      A                      A                      A
 Frequencies --    981.3423              1068.4229              1094.6210
 Red. masses --      2.6218                 2.2577                 3.2578
 Frc consts  --      1.4876                 1.5185                 2.2998
 IR Inten    --      1.9420                 8.4653                91.0527

                     34                     35                     36
                      A                      A                      A
 Frequencies --   1109.7023              1165.2893              1171.9822
 Red. masses --      1.1650                 2.0339                 2.3265
 Frc consts  --      0.8452                 1.6273                 1.8827
 IR Inten    --      1.4049                32.3702                57.5094

                     37                     38                     39
                      A                      A                      A
 Frequencies --   1191.9697              1236.3842              1265.8074
 Red. masses --      1.2190                 2.7058                 3.9015
 Frc consts  --      1.0204                 2.4370                 3.6831
 IR Inten    --      6.6197                 2.3444                31.6597

                     40                     41                     42
                      A                      A                      A
 Frequencies --   1280.2252              1369.2694              1380.7036
 Red. masses --      1.9475                 1.6977                 1.2028
 Frc consts  --      1.8806                 1.8754                 1.3510
 IR Inten    --     13.3285                28.3126                21.7669

                     43                     44                     45
                      A                      A                      A
 Frequencies --   1391.9405              1438.9397              1502.1704
 Red. masses --      2.1605                 1.2526                 4.4963
 Frc consts  --      2.4663                 1.5281                 5.9778
 IR Inten    --     33.1779                35.4050                74.8979

                     46                     47                     48
                      A                      A                      A
 Frequencies --   1534.2494              1595.9202              1614.7423
 Red. masses --      7.4354                 6.3433                 6.2092
 Frc consts  --     10.3120                 9.5189                 9.5388
 IR Inten    --     61.8925                 4.4732                83.0797

                     49                     50                     51
                      A                      A                      A
 Frequencies --   1676.4882              3007.9422              3029.5426
 Red. masses --      5.8840                 1.0613                 1.0950
 Frc consts  --      9.7438                 5.6576                 5.9212
 IR Inten    --     28.9715                26.7457                 6.7541

                     52                     53                     54
                      A                      A                      A
 Frequencies --   3155.0916              3176.4015              3193.5266
 Red. masses --      1.0591                 1.0854                 1.0937
 Frc consts  --      6.2117                 6.4524                 6.5718
 IR Inten    --      3.0876                12.7122                 6.1957

                     55                     56                     57
                      A                      A                      A
 Frequencies --   3197.1882              3213.4575              3243.6911
 Red. masses --      1.0899                 1.0935                 1.1148
 Frc consts  --      6.5640                 6.6531                 6.9110
 IR Inten    --      2.6491                 2.1202                 2.1084

 - Thermochemistry -
 -------------------
 Temperature   298.150 Kelvin.  Pressure   1.00000 Atm.
 Atom     1 has atomic number  6 and mass  12.00000

 Molecular mass:   184.03467 amu.
 Principal axes and moments of inertia in atomic units:
                           1         2         3
     Eigenvalues --  1385.945362789.810794153.42232
           X            0.99938  -0.03520  -0.00203
           Y            0.03520   0.99938  -0.00180
           Z            0.00210   0.00173   1.00000
 This molecule is an asymmetric top.
 Rotational symmetry number  1.
 Warning -- assumption of classical behavior for rotation
           may cause significant error
 Rotational temperatures (Kelvin)      0.06249     0.03105     0.02085
 Rotational constants (GHZ):           1.30217     0.64690     0.43452
 Zero-point vibrational energy     405449.2 (Joules/Mol)
                                   96.90468 (Kcal/Mol)
 Warning -- explicit consideration of  15 degrees of freedom as
           vibrations may cause significant error
 Vibrational temperatures:    111.41   187.93   210.80   299.96   314.93
          (Kelvin)            392.91   414.03   541.90   584.07   607.72
                              650.25   784.30   797.61   826.42   882.84
                              931.64   960.87  1027.02  1054.60  1068.50
                             1103.00  1126.66  1170.00  1196.67  1269.35
                             1291.39  1303.61  1316.95  1341.53  1408.00
                             1411.93  1537.22  1574.92  1596.61  1676.59
                             1686.22  1714.98  1778.88  1821.21  1841.96
                             1970.07  1986.52  2002.69  2070.31  2161.29
                             2207.44  2296.17  2323.25  2412.09  4327.76
                             4358.84  4539.47  4570.13  4594.77  4600.04
                             4623.45  4666.95

 Zero-point correction=                           0.154427 (Hartree/Particle)
 Thermal correction to Energy=                    0.164676
 Thermal correction to Enthalpy=                  0.165620
 Thermal correction to Gibbs Free Energy=         0.118643
 Sum of electronic and zero-point Energies=           -859.958733
 Sum of electronic and thermal Energies=              -859.948484
 Sum of electronic and thermal Enthalpies=            -859.947540
 Sum of electronic and thermal Free Energies=         -859.994517

                     E (Thermal)             CV                S
                      KCal/Mol        Cal/Mol-Kelvin    Cal/Mol-Kelvin
 Total                  103.336             41.707             98.872
 Electronic               0.000              0.000              0.000
 Translational            0.889              2.981             41.536
 Rotational               0.889              2.981             31.152
 Vibrational            101.558             35.745             26.184
 Vibration     1          0.599              1.964              3.955
 Vibration     2          0.612              1.923              2.937
 Vibration     3          0.617              1.906              2.717
 Vibration     4          0.642              1.828              2.057
 Vibration     5          0.647              1.812              1.968
 Vibration     6          0.676              1.723              1.577
 Vibration     7          0.685              1.696              1.487
 Vibration     8          0.747              1.520              1.053
 Vibration     9          0.771              1.457              0.941
 Vibration    10          0.785              1.422              0.884
 Vibration    11          0.811              1.357              0.790
 Vibration    12          0.900              1.150              0.554
 Vibration    13          0.910              1.130              0.535
 Vibration    14          0.931              1.087              0.496
 Vibration    15          0.973              1.003              0.427

 Optimization completed.
    -- Stationary point found.
 Normal termination of Gaussian 16 at Fri May 19 00:58:07 2023.
