 Gaussian 16, Revision A.03,
 Gaussian 16:  ES64L-G16RevA.03 25-Dec-2016

 -----------------------------
 # opt freq b3lyp/6-31g(2df,p)
 -----------------------------

 -------------------
 Title Card Required
 -------------------
 Symbolic Z-matrix:
 Charge =  0 Multiplicity = 1

 SCF Done:  E(RB3LYP) =  -1620.63242456     A.U. after   29 cycles
 SCF Done:  E(RB3LYP) =  -1620.77859366     A.U. after   23 cycles
 SCF Done:  E(RB3LYP) =  -1620.97845000     A.U. after   21 cycles
 SCF Done:  E(RB3LYP) =  -1621.10022073     A.U. after   21 cycles
 SCF Done:  E(RB3LYP) =  -1621.21902398     A.U. after   20 cycles
 SCF Done:  E(RB3LYP) =  -1621.33057691     A.U. after   19 cycles
 SCF Done:  E(RB3LYP) =  -1621.40533725     A.U. after   17 cycles
 SCF Done:  E(RB3LYP) =  -1621.49039680     A.U. after   16 cycles
 SCF Done:  E(RB3LYP) =  -1621.56794450     A.U. after   15 cycles
 SCF Done:  E(RB3LYP) =  -1621.62319652     A.U. after   15 cycles
 SCF Done:  E(RB3LYP) =  -1622.00697256     A.U. after    6 cycles
 SCF Done:  E(RB3LYP) =  -1622.00699200     A.U. after   11 cycles
 SCF Done:  E(RB3LYP) =  -1622.00702784     A.U. after   10 cycles
 SCF Done:  E(RB3LYP) =  -1622.00704456     A.U. after   10 cycles
 SCF Done:  E(RB3LYP) =  -1622.00705280     A.U. after   10 cycles
 SCF Done:  E(RB3LYP) =  -1622.00704964     A.U. after   10 cycles
 SCF Done:  E(RB3LYP) =  -1622.00706418     A.U. after    9 cycles
 SCF Done:  E(RB3LYP) =  -1622.00707894     A.U. after   10 cycles
 SCF Done:  E(RB3LYP) =  -1622.00708296     A.U. after    8 cycles
 Optimization completed.
    -- Stationary point found.
 Normal termination of Gaussian 16 at Sat May 20 12:19:01 2023.

 ----------------------------------------------------------------------
 #N Geom=AllCheck Guess=TCheck SCRF=Check GenChk RB3LYP/6-31G(2df,p) Fr
 eq
 ----------------------------------------------------------------------

 Structure from the checkpoint file:  "CdC1CdCCdCCdCCdCSC[SH]d[SH]1.chk"
 -------------------
 Title Card Required
 -------------------
 Charge =  0 Multiplicity = 1

                         Standard orientation:
 ---------------------------------------------------------------------
 Center     Atomic      Atomic             Coordinates (Angstroms)
 Number     Number       Type             X           Y           Z
 ---------------------------------------------------------------------
      1          6           0        5.891823   -2.067427   -0.543378
      2          6           0        4.427659    0.012156    0.171679
      3          6           0        4.875570   -2.013540    0.328199
      4          6           0        3.705573   -1.088124    0.173377
      5          6           0        2.317709   -1.487635    0.220729
      6          6           0        1.281690   -0.636397    0.028385
      7          6           0       -0.091938   -1.023898    0.073464
      8          6           0       -1.197388   -0.238526   -0.076086
      9          6           0       -2.516865   -0.838008   -0.038569
     10          6           0       -3.694939   -0.186392   -0.056338
     11         16           0       -5.240805   -1.002347   -0.137850
     12          6           0       -6.359943    0.322981    0.418061
     13         16           0       -1.168927    1.519011   -0.365269
     14         16           0        3.044884    3.145143    0.056910
     15          1           0        6.762605   -2.686959   -0.352691
     16          1           0        5.872913   -1.498911   -1.464453
     17          1           0        4.911079   -2.580967    1.257129
     18          1           0        3.957472    2.137886    0.007353
     19          1           0        2.125291   -2.539557    0.416361
     20          1           0        1.515566    0.402251   -0.188216
     21          1           0       -0.287076   -2.079415    0.257243
     22          1           0        0.059218    1.782258    0.113853
     23          1           0       -2.520487   -1.925416   -0.002586
     24          1           0       -3.741054    0.898353   -0.058331
     25          1           0       -6.255778    1.206026   -0.216003
     26          1           0       -7.373755   -0.068271    0.316789
     27          1           0       -6.175444    0.582018    1.461931
     28          1           0        3.153310    3.250677    1.393814
 ---------------------------------------------------------------------

 SCF Done:  E(RB3LYP) =  -1622.00708296     A.U. after    1 cycles

 The electronic state is 1-A.
 Alpha  occ. eigenvalues --  -88.89133 -88.88267 -88.86516 -10.23285 -10.23065
 Alpha  occ. eigenvalues --  -10.22234 -10.22226 -10.22108 -10.21380 -10.20466
 Alpha  occ. eigenvalues --  -10.20197 -10.19891 -10.19850 -10.19314  -7.95387
 Alpha  occ. eigenvalues --   -7.94825  -7.93468  -5.91849  -5.91493  -5.91263
 Alpha  occ. eigenvalues --   -5.90984  -5.90906  -5.90403  -5.89843  -5.89540
 Alpha  occ. eigenvalues --   -5.89016  -0.85882  -0.84826  -0.81704  -0.78900
 Alpha  occ. eigenvalues --   -0.74765  -0.73493  -0.72883  -0.70478  -0.66454
 Alpha  occ. eigenvalues --   -0.61990  -0.59645  -0.56103  -0.54231  -0.51539
 Alpha  occ. eigenvalues --   -0.49265  -0.47497  -0.45998  -0.44933  -0.43977
 Alpha  occ. eigenvalues --   -0.43406  -0.43061  -0.42101  -0.40143  -0.38645
 Alpha  occ. eigenvalues --   -0.38090  -0.37068  -0.36120  -0.35739  -0.34380
 Alpha  occ. eigenvalues --   -0.33614  -0.32683  -0.30719  -0.29169  -0.27589
 Alpha  occ. eigenvalues --   -0.25723  -0.25316  -0.23287  -0.18917
 Alpha virt. eigenvalues --   -0.07343  -0.06855   0.00194   0.01037   0.02594
 Alpha virt. eigenvalues --    0.03444   0.03867   0.06349   0.07102   0.07866
 Alpha virt. eigenvalues --    0.09442   0.09802   0.10068   0.11832   0.12531

 Mulliken charges:
               1
     1  C   -0.257427
     2  C   -0.274707
     3  C   -0.070385
     4  C    0.250884
     5  C   -0.217272
     6  C   -0.086310
     7  C   -0.123732
     8  C    0.149312
     9  C   -0.107549
    10  C   -0.124955
    11  S   -0.065729
    12  C   -0.391345
    13  S   -0.249380
    14  S   -0.419377
    15  H    0.131858
    16  H    0.145440
    17  H    0.122936
    18  H    0.222666
    19  H    0.091444
    20  H    0.116975
    21  H    0.089069
    22  H    0.177891
    23  H    0.104321
    24  H    0.138940
    25  H    0.153722
    26  H    0.155576
    27  H    0.155506
    28  H    0.181629
 Sum of Mulliken charges =  -0.00000

 Dipole moment (field-independent basis, Debye):
    X=             -0.9883    Y=             -2.3995    Z=              1.5225  Tot=              3.0087
 Quadrupole moment (field-independent basis, Debye-Ang):
   XX=            -86.8746   YY=           -104.8416   ZZ=           -107.6968
   XY=            -19.9011   XZ=             -2.0214   YZ=              2.0531

  Exact polarizability: 458.096 -43.904 188.116  -2.725  -2.968 104.697
 Approx polarizability: 677.425 -80.736 307.145   7.048  -7.415 178.061

                      1                      2                      3
                      A                      A                      A
 Frequencies --     17.8867                26.4330                31.5047
 Red. masses --      8.7939                 3.3430                 9.5216
 Frc consts  --      0.0017                 0.0014                 0.0056
 IR Inten    --      0.1468                 2.8312                 1.3969

                      4                      5                      6
                      A                      A                      A
 Frequencies --     38.3406                45.6247                52.8707
 Red. masses --      5.0462                 5.0551                 6.6078
 Frc consts  --      0.0044                 0.0062                 0.0109
 IR Inten    --      1.2471                 1.5732                 2.5680

                      7                      8                      9
                      A                      A                      A
 Frequencies --     68.1622                93.2991               115.1914
 Red. masses --      6.7631                 4.1081                 3.3023
 Frc consts  --      0.0185                 0.0211                 0.0258
 IR Inten    --      1.5583                 0.7452                 1.2041

                     10                     11                     12
                      A                      A                      A
 Frequencies --    132.4157               149.8284               155.8625
 Red. masses --      1.7698                 1.2970                 2.1343
 Frc consts  --      0.0183                 0.0172                 0.0305
 IR Inten    --      3.1802                 6.9120                 0.7633

                     13                     14                     15
                      A                      A                      A
 Frequencies --    169.8278               179.6495               185.5260
 Red. masses --      1.7669                 2.3430                 1.0966
 Frc consts  --      0.0300                 0.0446                 0.0222
 IR Inten    --     13.0519                 2.5413                11.9047

                     16                     17                     18
                      A                      A                      A
 Frequencies --    192.6554               204.1925               242.9066
 Red. masses --      2.0878                 4.0015                 2.7539
 Frc consts  --      0.0457                 0.0983                 0.0957
 IR Inten    --      8.6761                 2.5450                 5.9621

                     19                     20                     21
                      A                      A                      A
 Frequencies --    263.8502               280.9010               310.4064
 Red. masses --      4.0674                 1.8972                 4.0648
 Frc consts  --      0.1668                 0.0882                 0.2308
 IR Inten    --      3.2861                 7.1316                 5.2355

                     22                     23                     24
                      A                      A                      A
 Frequencies --    344.5749               393.7071               406.9739
 Red. masses --      2.9010                 2.0385                 2.9372
 Frc consts  --      0.2029                 0.1862                 0.2866
 IR Inten    --      2.8847                26.7475                16.6978

                     25                     26                     27
                      A                      A                      A
 Frequencies --    412.1529               495.8527               534.0521
 Red. masses --      1.6987                 5.2116                 4.3964
 Frc consts  --      0.1700                 0.7550                 0.7388
 IR Inten    --     34.6888                 1.1582                 0.7131

                     28                     29                     30
                      A                      A                      A
 Frequencies --    555.4334               610.1148               662.8511
 Red. masses --      2.9586                 4.4177                 4.9127
 Frc consts  --      0.5378                 0.9689                 1.2717
 IR Inten    --     12.1126                23.1413                21.0187

                     31                     32                     33
                      A                      A                      A
 Frequencies --    678.8063               713.6950               816.0622
 Red. masses --      1.6619                 5.8313                 1.6918
 Frc consts  --      0.4512                 1.7500                 0.6638
 IR Inten    --      6.7465                 0.9035                 9.0370

                     34                     35                     36
                      A                      A                      A
 Frequencies --    847.8090               858.1286               897.6511
 Red. masses --      3.0082                 1.7538                 1.7901
 Frc consts  --      1.2740                 0.7609                 0.8499
 IR Inten    --     55.7173                15.5918                 6.6912

                     37                     38                     39
                      A                      A                      A
 Frequencies --    901.7054               939.3784               963.5905
 Red. masses --      2.5979                 1.3088                 1.1704
 Frc consts  --      1.2445                 0.6805                 0.6403
 IR Inten    --      3.9059                34.0641                 1.6466

                     40                     41                     42
                      A                      A                      A
 Frequencies --    977.0302               979.8785               995.2728
 Red. masses --      1.1391                 1.3435                 1.3676
 Frc consts  --      0.6407                 0.7600                 0.7981
 IR Inten    --     46.2821                28.4860                 6.6190

                     43                     44                     45
                      A                      A                      A
 Frequencies --   1006.4626              1011.5916              1042.4044
 Red. masses --      1.2042                 1.1115                 2.0906
 Frc consts  --      0.7187                 0.6701                 1.3384
 IR Inten    --     51.0067                32.7799                 2.4146

                     46                     47                     48
                      A                      A                      A
 Frequencies --   1130.1203              1180.2213              1206.8276
 Red. masses --      2.3031                 2.6030                 2.9944
 Frc consts  --      1.7331                 2.1363                 2.5695
 IR Inten    --      5.1294                13.6117                18.3979

                     49                     50                     51
                      A                      A                      A
 Frequencies --   1213.6307              1250.7363              1294.7556
 Red. masses --      1.0412                 1.2973                 1.4916
 Frc consts  --      0.9035                 1.1957                 1.4733
 IR Inten    --      0.6921                26.5891                15.9072

                     52                     53                     54
                      A                      A                      A
 Frequencies --   1306.2636              1320.0854              1342.7004
 Red. masses --      1.2809                 1.3098                 1.3783
 Frc consts  --      1.2878                 1.3448                 1.4640
 IR Inten    --      2.6813                 5.9338                17.6281

                     55                     56                     57
                      A                      A                      A
 Frequencies --   1354.3019              1369.8271              1423.5385
 Red. masses --      1.1723                 1.4201                 1.2836
 Frc consts  --      1.2669                 1.5700                 1.5325
 IR Inten    --     29.1006                13.1067                 7.6604

                     58                     59                     60
                      A                      A                      A
 Frequencies --   1467.6371              1481.1057              1589.4916
 Red. masses --      1.0523                 1.0526                 5.7238
 Frc consts  --      1.3354                 1.3605                 8.5203
 IR Inten    --      8.1244                22.9227                19.5042

                     61                     62                     63
                      A                      A                      A
 Frequencies --   1614.7877              1620.7768              1654.5630
 Red. masses --      4.9784                 4.0426                 5.3025
 Frc consts  --      7.6484                 6.2569                 8.5526
 IR Inten    --    253.5178                24.9562                 6.3195

                     64                     65                     66
                      A                      A                      A
 Frequencies --   1730.6892              2505.8465              2685.2893
 Red. masses --      8.0652                 1.0390                 1.0385
 Frc consts  --     14.2332                 3.8441                 4.4121
 IR Inten    --     15.5582               134.8447                 4.7662

                     67                     68                     69
                      A                      A                      A
 Frequencies --   2696.8176              3051.7146              3132.7735
 Red. masses --      1.0379                 1.0293                 1.0864
 Frc consts  --      4.4473                 5.6480                 6.2819
 IR Inten    --      0.8701                32.6253                 5.6668

                     70                     71                     72
                      A                      A                      A
 Frequencies --   3134.8124              3140.5104              3149.6461
 Red. masses --      1.0817                 1.1070                 1.0888
 Frc consts  --      6.2627                 6.4330                 6.3636
 IR Inten    --      7.3548                 6.8476                11.9000

                     73                     74                     75
                      A                      A                      A
 Frequencies --   3150.7095              3154.3850              3159.9848
 Red. masses --      1.1036                 1.0892                 1.0689
 Frc consts  --      6.4545                 6.3854                 6.2885
 IR Inten    --      1.6271                14.4069                10.0445

                     76                     77                     78
                      A                      A                      A
 Frequencies --   3167.9516              3173.8992              3256.8208
 Red. masses --      1.0864                 1.0889                 1.1145
 Frc consts  --      6.4236                 6.4630                 6.9649
 IR Inten    --      9.4321                11.3971                 7.7375

 - Thermochemistry -
 -------------------
 Temperature   298.150 Kelvin.  Pressure   1.00000 Atm.
 Atom     1 has atomic number  6 and mass  12.00000

 Molecular mass:   242.02577 amu.
 Principal axes and moments of inertia in atomic units:
                           1         2         3
     Eigenvalues --  2373.05465********************
           X            0.99992  -0.01199  -0.00284
           Y            0.01200   0.99991   0.00567
           Z            0.00277  -0.00571   0.99998
 This molecule is an asymmetric top.
 Rotational symmetry number  1.
 Warning -- assumption of classical behavior for rotation
           may cause significant error
 Rotational temperatures (Kelvin)      0.03650     0.00701     0.00594
 Rotational constants (GHZ):           0.76051     0.14606     0.12383
 Zero-point vibrational energy     539011.8 (Joules/Mol)
                                  128.82691 (Kcal/Mol)
 Warning -- explicit consideration of  29 degrees of freedom as
           vibrations may cause significant error
 Vibrational temperatures:     25.73    38.03    45.33    55.16    65.64
          (Kelvin)             76.07    98.07   134.24   165.73   190.52
                              215.57   224.25   244.34   258.48   266.93
                              277.19   293.79   349.49   379.62   404.15
                              446.61   495.77   566.46   585.54   593.00
                              713.42   768.38   799.14   877.82   953.69
                              976.65  1026.85  1174.13  1219.81  1234.66
                             1291.52  1297.35  1351.56  1386.39  1405.73
                             1409.83  1431.98  1448.08  1455.45  1499.79
                             1625.99  1698.08  1736.36  1746.14  1799.53
                             1862.86  1879.42  1899.31  1931.85  1948.54
                             1970.88  2048.15  2111.60  2130.98  2286.92
                             2323.32  2331.94  2380.55  2490.08  3605.35
                             3863.53  3880.12  4390.74  4507.36  4510.30
                             4518.49  4531.64  4533.17  4538.46  4546.51
                             4557.98  4566.53  4685.84

 Zero-point correction=                           0.205299 (Hartree/Particle)
 Thermal correction to Energy=                    0.225464
 Thermal correction to Enthalpy=                  0.226408
 Thermal correction to Gibbs Free Energy=         0.152032
 Sum of electronic and zero-point Energies=          -1621.801784
 Sum of electronic and thermal Energies=             -1621.781619
 Sum of electronic and thermal Enthalpies=           -1621.780675
 Sum of electronic and thermal Free Energies=        -1621.855051

                     E (Thermal)             CV                S
                      KCal/Mol        Cal/Mol-Kelvin    Cal/Mol-Kelvin
 Total                  141.481             66.940            156.538
 Electronic               0.000              0.000              0.000
 Translational            0.889              2.981             42.353
 Rotational               0.889              2.981             34.412
 Vibrational            139.703             60.978             79.773
 Vibration     1          0.593              1.986              6.856
 Vibration     2          0.593              1.985              6.081
 Vibration     3          0.594              1.983              5.732
 Vibration     4          0.594              1.982              5.343
 Vibration     5          0.595              1.979              4.999
 Vibration     6          0.596              1.976              4.707
 Vibration     7          0.598              1.969              4.206
 Vibration     8          0.602              1.954              3.590
 Vibration     9          0.608              1.937              3.179
 Vibration    10          0.613              1.921              2.911
 Vibration    11          0.618              1.903              2.674
 Vibration    12          0.620              1.896              2.599
 Vibration    13          0.625              1.880              2.437
 Vibration    14          0.629              1.867              2.332
 Vibration    15          0.632              1.860              2.272
 Vibration    16          0.635              1.850              2.202
 Vibration    17          0.640              1.834              2.095
 Vibration    18          0.659              1.774              1.781
 Vibration    19          0.670              1.739              1.636
 Vibration    20          0.681              1.709              1.528
 Vibration    21          0.699              1.654              1.360
 Vibration    22          0.723              1.586              1.191
 Vibration    23          0.761              1.484              0.986
 Vibration    24          0.772              1.455              0.937
 Vibration    25          0.776              1.444              0.919
 Vibration    26          0.851              1.259              0.669
 Vibration    27          0.889              1.175              0.578
 Vibration    28          0.911              1.128              0.533
 Vibration    29          0.969              1.010              0.433

 Optimization completed.
    -- Stationary point found.
 Normal termination of Gaussian 16 at Sat May 20 13:39:58 2023.
