 Gaussian 16, Revision A.03,
 Gaussian 16:  ES64L-G16RevA.03 25-Dec-2016

 -----------------------------
 # opt freq b3lyp/6-31g(2df,p)
 -----------------------------

 -------------------
 Title Card Required
 -------------------
 Symbolic Z-matrix:
 Charge =  0 Multiplicity = 1

 SCF Done:  E(RB3LYP) =  -1202.78167341     A.U. after   22 cycles
 SCF Done:  E(RB3LYP) =  -1202.81656940     A.U. after   14 cycles
 SCF Done:  E(RB3LYP) =  -1202.84940892     A.U. after   15 cycles
 SCF Done:  E(RB3LYP) =  -1202.86078868     A.U. after   13 cycles
 SCF Done:  E(RB3LYP) =  -1202.86656673     A.U. after   13 cycles
 SCF Done:  E(RB3LYP) =  -1202.86837243     A.U. after   13 cycles
 SCF Done:  E(RB3LYP) =  -1202.86948858     A.U. after   13 cycles
 SCF Done:  E(RB3LYP) =  -1202.87045121     A.U. after   13 cycles
 SCF Done:  E(RB3LYP) =  -1202.87189615     A.U. after   13 cycles
 SCF Done:  E(RB3LYP) =  -1202.87415333     A.U. after   13 cycles
 SCF Done:  E(RB3LYP) =  -1202.87981538     A.U. after   14 cycles
 SCF Done:  E(RB3LYP) =  -1202.88071032     A.U. after   13 cycles
 SCF Done:  E(RB3LYP) =  -1202.88085811     A.U. after   13 cycles
 SCF Done:  E(RB3LYP) =  -1202.88119938     A.U. after   12 cycles
 SCF Done:  E(RB3LYP) =  -1202.88123598     A.U. after   11 cycles
 SCF Done:  E(RB3LYP) =  -1202.88125095     A.U. after   11 cycles
 SCF Done:  E(RB3LYP) =  -1202.88125489     A.U. after    9 cycles
 SCF Done:  E(RB3LYP) =  -1202.88125677     A.U. after    9 cycles
 SCF Done:  E(RB3LYP) =  -1202.88125697     A.U. after    7 cycles
 Optimization completed.
    -- Stationary point found.
 Normal termination of Gaussian 16 at Wed May 17 23:35:32 2023.

 ----------------------------------------------------------------------
 #N Geom=AllCheck Guess=TCheck SCRF=Check GenChk RB3LYP/6-31G(2df,p) Fr
 eq
 ----------------------------------------------------------------------

 Structure from the checkpoint file:  "CdC1CqCrC1Cd[SH]Cd[SH]CCdN.chk"
 -------------------
 Title Card Required
 -------------------
 Charge =  0 Multiplicity = 1

                         Standard orientation:
 ---------------------------------------------------------------------
 Center     Atomic      Atomic             Coordinates (Angstroms)
 Number     Number       Type             X           Y           Z
 ---------------------------------------------------------------------
      1          6           0       -4.474045    0.601307    0.649617
      2          6           0       -3.411276   -0.081561    0.274485
      3          6           0       -2.704864   -1.371718    0.255720
      4          6           0       -3.154431   -2.504174   -0.647236
      5          6           0       -2.067854   -0.097920   -0.342868
      6          6           0       -0.855361    0.498760    0.299202
      7         16           0       -0.188767    1.855012   -0.460467
      8          6           0        1.465323    2.104674    0.122587
      9         16           0        2.429092    0.806339   -0.375285
     10          6           0        2.546321   -0.682943    0.825986
     11          6           0        3.724739   -1.532566    0.476865
     12          7           0        3.747451   -2.540720   -0.297874
     13          1           0       -5.299906    0.133547    1.179617
     14          1           0       -4.570057    1.664241    0.443634
     15          1           0       -2.276481   -1.696554    1.205129
     16          1           0       -3.567638   -2.114909   -1.583003
     17          1           0       -3.934113   -3.107977   -0.169013
     18          1           0       -2.319832   -3.169767   -0.895323
     19          1           0       -2.050744   -0.079061   -1.434018
     20          1           0       -0.848817    0.516185    1.389466
     21          1           0       -0.519364    3.154087   -0.003178
     22          1           0        1.560420    2.429122    1.156027
     23          1           0        3.667101    1.267470   -0.082842
     24          1           0        1.581253   -1.169839    0.674482
     25          1           0        2.600900   -0.257723    1.830330
     26          1           0        4.680803   -1.218950    0.911164
     27          1           0        2.807822   -2.749609   -0.651458
 ---------------------------------------------------------------------

 SCF Done:  E(RB3LYP) =  -1202.88125697     A.U. after    1 cycles

 The electronic state is 1-A.
 Alpha  occ. eigenvalues --  -88.97584 -88.93773 -14.33738 -10.25251 -10.23473
 Alpha  occ. eigenvalues --  -10.20181 -10.18300 -10.18030 -10.17249 -10.17085
 Alpha  occ. eigenvalues --  -10.16257 -10.15689  -8.03239  -7.99136  -5.99530
 Alpha  occ. eigenvalues --   -5.99494  -5.99011  -5.95472  -5.95391  -5.94955
 Alpha  occ. eigenvalues --   -0.92310  -0.87011  -0.85326  -0.80631  -0.73815
 Alpha  occ. eigenvalues --   -0.71389  -0.69438  -0.64704  -0.61057  -0.58720
 Alpha  occ. eigenvalues --   -0.54940  -0.51047  -0.50173  -0.48882  -0.47938
 Alpha  occ. eigenvalues --   -0.45562  -0.45346  -0.44798  -0.41733  -0.41333
 Alpha  occ. eigenvalues --   -0.40940  -0.40182  -0.39528  -0.37609  -0.34682
 Alpha  occ. eigenvalues --   -0.34392  -0.33167  -0.30005  -0.29323  -0.28287
 Alpha  occ. eigenvalues --   -0.26633  -0.24219  -0.21477  -0.16326
 Alpha virt. eigenvalues --   -0.04959  -0.00379   0.01879   0.03104   0.04406
 Alpha virt. eigenvalues --    0.06493   0.07672   0.08958   0.10198   0.10648
 Alpha virt. eigenvalues --    0.12214   0.13193   0.14371   0.14479   0.14642

 Mulliken charges:
               1
     1  C   -0.462219
     2  C    0.346059
     3  C   -0.113953
     4  C   -0.401859
     5  C   -0.116234
     6  C   -0.255270
     7  S    0.022952
     8  C   -0.255666
     9  S    0.069849
    10  C   -0.290189
    11  C    0.042460
    12  N   -0.366812
    13  H    0.099024
    14  H    0.099316
    15  H    0.081212
    16  H    0.117390
    17  H    0.115622
    18  H    0.110602
    19  H    0.087586
    20  H    0.071926
    21  H    0.054115
    22  H    0.122241
    23  H    0.171668
    24  H    0.166383
    25  H    0.139895
    26  H    0.114260
    27  H    0.229643
 Sum of Mulliken charges =  -0.00000

 Dipole moment (field-independent basis, Debye):
    X=              2.3610    Y=              0.7224    Z=              1.8605  Tot=              3.0915
 Quadrupole moment (field-independent basis, Debye-Ang):
   XX=            -90.3131   YY=            -93.2015   ZZ=            -87.3606
   XY=              8.9438   XZ=              6.1535   YZ=              0.9356

  Exact polarizability: 204.925 -13.099 179.408  -6.118   2.915 102.324
 Approx polarizability: 265.810 -27.721 317.569 -10.240  -0.194 172.427

                      1                      2                      3
                      A                      A                      A
 Frequencies --     22.3875                27.3128                53.0042
 Red. masses --      4.2874                 4.4198                 3.2455
 Frc consts  --      0.0013                 0.0019                 0.0054
 IR Inten    --      0.1240                 1.0938                 2.7540

                      4                      5                      6
                      A                      A                      A
 Frequencies --     55.2314                71.9588                88.7111
 Red. masses --      4.0804                 4.1010                 3.6439
 Frc consts  --      0.0073                 0.0125                 0.0169
 IR Inten    --      1.6369                 7.4675                 0.5885

                      7                      8                      9
                      A                      A                      A
 Frequencies --    120.6923               148.9079               177.6954
 Red. masses --      3.9747                 2.7981                 3.1630
 Frc consts  --      0.0341                 0.0366                 0.0588
 IR Inten    --      4.5833                 0.4090                 5.0211

                     10                     11                     12
                      A                      A                      A
 Frequencies --    201.7413               227.3419               234.4365
 Red. masses --      1.1824                 3.7511                 2.6172
 Frc consts  --      0.0284                 0.1142                 0.0847
 IR Inten    --      0.4233                11.3441                 1.5951

                     13                     14                     15
                      A                      A                      A
 Frequencies --    273.6855               308.2742               325.8138
 Red. masses --      3.3149                 3.6856                 3.7553
 Frc consts  --      0.1463                 0.2064                 0.2349
 IR Inten    --      7.2210                 6.0327                 1.2695

                     16                     17                     18
                      A                      A                      A
 Frequencies --    349.0390               412.1427               479.5256
 Red. masses --      2.3448                 3.2699                 2.2811
 Frc consts  --      0.1683                 0.3273                 0.3090
 IR Inten    --      2.1984                 0.4756                22.0931

                     19                     20                     21
                      A                      A                      A
 Frequencies --    507.4618               545.1759               602.7650
 Red. masses --      3.2090                 1.8954                 2.5599
 Frc consts  --      0.4869                 0.3319                 0.5480
 IR Inten    --     83.3956                25.2218                15.8074

                     22                     23                     24
                      A                      A                      A
 Frequencies --    619.6228               670.0459               694.4464
 Red. masses --      2.2617                 1.4813                 1.2402
 Frc consts  --      0.5116                 0.3918                 0.3524
 IR Inten    --     82.2304                10.1777                11.9834

                     25                     26                     27
                      A                      A                      A
 Frequencies --    744.1823               767.8078               791.0188
 Red. masses --      2.0280                 1.4643                 1.6756
 Frc consts  --      0.6617                 0.5086                 0.6177
 IR Inten    --     22.2978                43.6509                64.0277

                     28                     29                     30
                      A                      A                      A
 Frequencies --    827.9811               836.6798               876.9268
 Red. masses --      2.3080                 1.8894                 2.2404
 Frc consts  --      0.9322                 0.7793                 1.0151
 IR Inten    --      6.5428                 4.1786                43.8426

                     31                     32                     33
                      A                      A                      A
 Frequencies --    913.2024               915.5794               927.7024
 Red. masses --      1.9548                 1.3270                 1.9482
 Frc consts  --      0.9605                 0.6554                 0.9879
 IR Inten    --      7.4857                32.2026                 2.8596

                     34                     35                     36
                      A                      A                      A
 Frequencies --    937.5107               978.5678              1002.8001
 Red. masses --      2.2466                 1.9743                 1.5651
 Frc consts  --      1.1634                 1.1139                 0.9273
 IR Inten    --     35.9036                44.7846                54.9099

                     37                     38                     39
                      A                      A                      A
 Frequencies --   1031.3173              1037.3100              1077.6090
 Red. masses --      1.2197                 1.4479                 1.2933
 Frc consts  --      0.7644                 0.9179                 0.8848
 IR Inten    --     18.5455                72.8880                19.1455

                     40                     41                     42
                      A                      A                      A
 Frequencies --   1099.3984              1113.3496              1122.8473
 Red. masses --      2.3630                 1.5362                 1.0621
 Frc consts  --      1.6828                 1.1219                 0.7889
 IR Inten    --     17.8697                 5.9414                20.2915

                     43                     44                     45
                      A                      A                      A
 Frequencies --   1132.1252              1147.6409              1153.2150
 Red. masses --      1.7172                 1.1083                 1.9698
 Frc consts  --      1.2967                 0.8600                 1.5434
 IR Inten    --      3.5907                34.7785                 1.1648

                     46                     47                     48
                      A                      A                      A
 Frequencies --   1171.9962              1183.1325              1214.4832
 Red. masses --      2.3685                 1.2201                 1.2315
 Frc consts  --      1.9168                 1.0063                 1.0702
 IR Inten    --     10.0989                25.6873                47.9043

                     49                     50                     51
                      A                      A                      A
 Frequencies --   1227.6555              1276.0322              1336.5939
 Red. masses --      1.2233                 1.3317                 1.4087
 Frc consts  --      1.0862                 1.2776                 1.4827
 IR Inten    --      9.2056               101.4721                 3.4544

                     52                     53                     54
                      A                      A                      A
 Frequencies --   1371.1748              1409.6681              1425.8648
 Red. masses --      1.6369                 1.2275                 1.2045
 Frc consts  --      1.8132                 1.4372                 1.4429
 IR Inten    --      4.2009                 2.2415                35.3965

                     55                     56                     57
                      A                      A                      A
 Frequencies --   1468.6258              1475.6424              1490.2071
 Red. masses --      1.1215                 1.1906                 1.0468
 Frc consts  --      1.4252                 1.5275                 1.3697
 IR Inten    --      8.1749                 2.1053                 1.3478

                     58                     59                     60
                      A                      A                      A
 Frequencies --   1500.1978              1701.7142              1825.2700
 Red. masses --      1.0554                 7.9119                 8.9650
 Frc consts  --      1.3995                13.4990                17.5976
 IR Inten    --      3.4943                98.3569                 1.9135

                     61                     62                     63
                      A                      A                      A
 Frequencies --   2057.9778              2589.8761              3023.1346
 Red. masses --      1.0372                 1.0379                 1.0350
 Frc consts  --      2.5881                 4.1019                 5.5735
 IR Inten    --    516.4960                19.4134                47.3203

                     64                     65                     66
                      A                      A                      A
 Frequencies --   3067.4301              3075.4427              3083.4608
 Red. masses --      1.0851                 1.0588                 1.0997
 Frc consts  --      6.0153                 5.9003                 6.1602
 IR Inten    --     35.8236                 6.2999                26.4580

                     67                     68                     69
                      A                      A                      A
 Frequencies --   3083.9616              3088.4414              3105.9480
 Red. masses --      1.0878                 1.0872                 1.0962
 Frc consts  --      6.0953                 6.1098                 6.2303
 IR Inten    --      3.0022                 7.4036                27.3269

                     70                     71                     72
                      A                      A                      A
 Frequencies --   3112.2296              3118.6945              3147.0940
 Red. masses --      1.0855                 1.0586                 1.0878
 Frc consts  --      6.1950                 6.0663                 6.3478
 IR Inten    --     28.9222                28.1860                 7.5435

                     73                     74                     75
                      A                      A                      A
 Frequencies --   3149.4186              3193.0332              3411.8295
 Red. masses --      1.1089                 1.1143                 1.0739
 Frc consts  --      6.4807                 6.6938                 7.3656
 IR Inten    --      2.1766                15.4886                 3.3524

 - Thermochemistry -
 -------------------
 Temperature   298.150 Kelvin.  Pressure   1.00000 Atm.
 Atom     1 has atomic number  6 and mass  12.00000

 Molecular mass:   201.06459 amu.
 Principal axes and moments of inertia in atomic units:
                           1         2         3
     Eigenvalues --  1879.341705381.764846871.96246
           X            0.99989   0.01357   0.00637
           Y           -0.01370   0.99971   0.02005
           Z           -0.00610  -0.02013   0.99978
 This molecule is an asymmetric top.
 Rotational symmetry number  1.
 Warning -- assumption of classical behavior for rotation
           may cause significant error
 Rotational temperatures (Kelvin)      0.04609     0.01609     0.01260
 Rotational constants (GHZ):           0.96030     0.33534     0.26262
 Zero-point vibrational energy     562474.7 (Joules/Mol)
                                  134.43467 (Kcal/Mol)
 Warning -- explicit consideration of  22 degrees of freedom as
           vibrations may cause significant error
 Vibrational temperatures:     32.21    39.30    76.26    79.47   103.53
          (Kelvin)            127.64   173.65   214.25   255.66   290.26
                              327.09   337.30   393.77   443.54   468.77
                              502.19   592.98   689.93   730.12   784.39
                              867.24   891.50   964.05   999.15  1070.71
                             1104.70  1138.10  1191.28  1203.80  1261.70
                             1313.89  1317.31  1334.76  1348.87  1407.94
                             1442.81  1483.84  1492.46  1550.44  1581.79
                             1601.86  1615.53  1628.88  1651.20  1659.22
                             1686.24  1702.26  1747.37  1766.32  1835.93
                             1923.06  1972.81  2028.20  2051.50  2113.03
                             2123.12  2144.08  2158.45  2448.39  2626.16
                             2960.97  3726.25  4349.62  4413.35  4424.88
                             4436.41  4437.13  4443.58  4468.77  4477.80
                             4487.11  4527.97  4531.31  4594.06  4908.86

 Zero-point correction=                           0.214235 (Hartree/Particle)
 Thermal correction to Energy=                    0.229780
 Thermal correction to Enthalpy=                  0.230724
 Thermal correction to Gibbs Free Energy=         0.168719
 Sum of electronic and zero-point Energies=          -1202.667022
 Sum of electronic and thermal Energies=             -1202.651477
 Sum of electronic and thermal Enthalpies=           -1202.650533
 Sum of electronic and thermal Free Energies=        -1202.712538

                     E (Thermal)             CV                S
                      KCal/Mol        Cal/Mol-Kelvin    Cal/Mol-Kelvin
 Total                  144.189             55.230            130.500
 Electronic               0.000              0.000              0.000
 Translational            0.889              2.981             41.800
 Rotational               0.889              2.981             32.608
 Vibrational            142.411             49.268             56.092
 Vibration     1          0.593              1.985              6.410
 Vibration     2          0.593              1.984              6.016
 Vibration     3          0.596              1.976              4.702
 Vibration     4          0.596              1.975              4.621
 Vibration     5          0.598              1.967              4.099
 Vibration     6          0.602              1.957              3.688
 Vibration     7          0.609              1.932              3.089
 Vibration     8          0.618              1.904              2.686
 Vibration     9          0.628              1.870              2.352
 Vibration    10          0.639              1.837              2.117
 Vibration    11          0.651              1.799              1.900
 Vibration    12          0.654              1.788              1.845
 Vibration    13          0.676              1.722              1.573
 Vibration    14          0.698              1.658              1.372
 Vibration    15          0.710              1.624              1.281
 Vibration    16          0.726              1.577              1.171
 Vibration    17          0.776              1.444              0.919
 Vibration    18          0.836              1.295              0.711
 Vibration    19          0.863              1.233              0.640
 Vibration    20          0.900              1.150              0.554
 Vibration    21          0.961              1.026              0.445
 Vibration    22          0.980              0.990              0.417

                           ! Non-Optimized Parameters !
 Normal termination of Gaussian 16 at Thu May 18 00:43:10 2023.
