 Gaussian 16, Revision A.03,
 Gaussian 16:  ES64L-G16RevA.03 25-Dec-2016

 -----------------------------
 # opt freq b3lyp/6-31g(2df,p)
 -----------------------------

 -------------------
 Title Card Required
 -------------------
 Symbolic Z-matrix:
 Charge =  0 Multiplicity = 1

 SCF Done:  E(RB3LYP) =  -1737.36025480     A.U. after   52 cycles
 SCF Done:  E(RB3LYP) =  -1737.41761803     A.U. after   16 cycles
 SCF Done:  E(RB3LYP) =  -1737.48499771     A.U. after   15 cycles
 SCF Done:  E(RB3LYP) =  -1737.51416447     A.U. after   15 cycles
 SCF Done:  E(RB3LYP) =  -1737.52713633     A.U. after   14 cycles
 SCF Done:  E(RB3LYP) =  -1737.53235611     A.U. after   13 cycles
 SCF Done:  E(RB3LYP) =  -1737.53403082     A.U. after   13 cycles
 SCF Done:  E(RB3LYP) =  -1737.53419012     A.U. after   13 cycles
 SCF Done:  E(RB3LYP) =  -1737.53461302     A.U. after   12 cycles
 SCF Done:  E(RB3LYP) =  -1737.53468215     A.U. after   12 cycles
 SCF Done:  E(RB3LYP) =  -1737.53471288     A.U. after   11 cycles
 SCF Done:  E(RB3LYP) =  -1737.53472006     A.U. after   10 cycles
 SCF Done:  E(RB3LYP) =  -1737.53472217     A.U. after    9 cycles
 SCF Done:  E(RB3LYP) =  -1737.53472274     A.U. after    8 cycles
 SCF Done:  E(RB3LYP) =  -1737.53472297     A.U. after    8 cycles
 SCF Done:  E(RB3LYP) =  -1737.53472307     A.U. after    7 cycles
 Optimization completed.
    -- Stationary point found.
 Normal termination of Gaussian 16 at Fri May 19 18:02:14 2023.

 ----------------------------------------------------------------------
 #N Geom=AllCheck Guess=TCheck SCRF=Check GenChk RB3LYP/6-31G(2df,p) Fr
 eq
 ----------------------------------------------------------------------

 Structure from the checkpoint file:  "CdC1CdCC2dCCdC1SCdCC2SCCSC.chk"
 -------------------
 Title Card Required
 -------------------
 Charge =  0 Multiplicity = 1

                         Standard orientation:
 ---------------------------------------------------------------------
 Center     Atomic      Atomic             Coordinates (Angstroms)
 Number     Number       Type             X           Y           Z
 ---------------------------------------------------------------------
      1          6           0       -4.892974    0.462826   -1.766423
      2          6           0       -3.807372    0.516819   -0.977960
      3          6           0       -2.767609    1.523316   -1.155594
      4          6           0       -1.670223    1.753349   -0.390050
      5          6           0       -1.346337    1.186364    0.903693
      6          6           0       -2.322622    0.705035    1.792217
      7          6           0       -3.320395   -0.179373    1.374311
      8          6           0       -3.546162   -0.543686    0.032964
      9         16           0       -2.819475   -2.095535   -0.375925
     10          6           0       -1.239466   -1.753342    0.493627
     11          6           0       -0.506564   -0.686485    0.103408
     12          6           0       -0.020027    0.455310    1.036354
     13         16           0        1.461440    1.362117    0.468249
     14          6           0        2.661401   -0.024227    0.433173
     15          6           0        3.965838    0.452835   -0.199207
     16         16           0        5.178622   -0.919671   -0.199134
     17          6           0        6.586591   -0.070838   -0.978354
     18          1           0       -5.051373    1.192670   -2.553983
     19          1           0       -5.631613   -0.322833   -1.658401
     20          1           0       -2.799905    2.031358   -2.117169
     21          1           0       -0.890179    2.374033   -0.824751
     22          1           0       -2.024573    0.586844    2.832255
     23          1           0       -3.625637   -0.894468    2.137073
     24          1           0       -1.210202   -2.128908    1.512229
     25          1           0       -0.559954   -0.372973   -0.933950
     26          1           0        0.130047    0.096333    2.057786
     27          1           0        2.227053   -0.844982   -0.143966
     28          1           0        2.836766   -0.373047    1.455054
     29          1           0        4.382354    1.293232    0.365034
     30          1           0        3.793056    0.779802   -1.228846
     31          1           0        7.398768   -0.798009   -1.037913
     32          1           0        6.915979    0.779711   -0.376311
     33          1           0        6.335536    0.263247   -1.988134
 ---------------------------------------------------------------------

 SCF Done:  E(RB3LYP) =  -1737.53472307     A.U. after    1 cycles

 The electronic state is 1-A.
 Alpha  occ. eigenvalues --  -88.89833 -88.87460 -88.86936 -10.24737 -10.22835
 Alpha  occ. eigenvalues --  -10.22233 -10.22138 -10.22000 -10.21261 -10.21220
 Alpha  occ. eigenvalues --  -10.21007 -10.20698 -10.20639 -10.20526 -10.20170
 Alpha  occ. eigenvalues --  -10.19831 -10.17983  -7.95734  -7.93756  -7.93264
 Alpha  occ. eigenvalues --   -5.92195  -5.91861  -5.91387  -5.90245  -5.89909
 Alpha  occ. eigenvalues --   -5.89756  -5.89415  -5.89271  -5.88760  -0.88665
 Alpha  occ. eigenvalues --   -0.83928  -0.81906  -0.80806  -0.78920  -0.77108
 Alpha  occ. eigenvalues --   -0.74153  -0.71538  -0.68571  -0.66587  -0.63111
 Alpha  occ. eigenvalues --   -0.62084  -0.59520  -0.58781  -0.56206  -0.52950
 Alpha  occ. eigenvalues --   -0.51768  -0.48822  -0.47786  -0.45817  -0.45435
 Alpha  occ. eigenvalues --   -0.44815  -0.44172  -0.43862  -0.43024  -0.42602
 Alpha  occ. eigenvalues --   -0.41890  -0.41137  -0.39923  -0.38631  -0.37751
 Alpha  occ. eigenvalues --   -0.37495  -0.36811  -0.35446  -0.34430  -0.32093
 Alpha  occ. eigenvalues --   -0.31840  -0.31115  -0.28366  -0.26483  -0.24700
 Alpha  occ. eigenvalues --   -0.24259  -0.23113  -0.22063  -0.19092
 Alpha virt. eigenvalues --   -0.09125  -0.04247  -0.02753   0.01224   0.02513
 Alpha virt. eigenvalues --    0.04015   0.04816   0.05971   0.06697   0.08445
 Alpha virt. eigenvalues --    0.08860   0.10880   0.11348   0.11846   0.12234

 Mulliken charges:
               1
     1  C   -0.410530
     2  C    0.266672
     3  C   -0.099882
     4  C   -0.145941
     5  C    0.102637
     6  C   -0.150821
     7  C   -0.126308
     8  C    0.024684
     9  S   -0.126458
    10  C   -0.165694
    11  C   -0.033603
    12  C   -0.104858
    13  S   -0.170670
    14  C   -0.204554
    15  C   -0.198446
    16  S   -0.132286
    17  C   -0.378555
    18  H    0.108937
    19  H    0.114854
    20  H    0.104460
    21  H    0.123220
    22  H    0.109316
    23  H    0.133442
    24  H    0.112278
    25  H    0.136110
    26  H    0.115367
    27  H    0.149561
    28  H    0.138604
    29  H    0.136123
    30  H    0.137156
    31  H    0.151072
    32  H    0.141878
    33  H    0.142235
 Sum of Mulliken charges =  -0.00000

 Dipole moment (field-independent basis, Debye):
    X=              0.9160    Y=              1.1685    Z=              0.4473  Tot=              1.5507
 Quadrupole moment (field-independent basis, Debye-Ang):
   XX=           -114.7554   YY=           -129.6691   ZZ=           -116.8830
   XY=              3.2431   XZ=             -5.4088   YZ=             -6.0271

  Exact polarizability: 298.960  13.793 186.316  22.516  -7.275 172.234
 Approx polarizability: 465.992  58.296 380.571  50.393   5.123 317.885

                      1                      2                      3
                      A                      A                      A
 Frequencies --     16.0910                28.2186                39.8061
 Red. masses --      4.5331                 3.8117                 6.5637
 Frc consts  --      0.0007                 0.0018                 0.0061
 IR Inten    --      0.5841                 1.8345                 0.2598

                      4                      5                      6
                      A                      A                      A
 Frequencies --     69.6708                76.9931               101.7589
 Red. masses --      3.5087                 2.2513                 3.0166
 Frc consts  --      0.0100                 0.0079                 0.0184
 IR Inten    --      0.7268                 0.5186                 3.3202

                      7                      8                      9
                      A                      A                      A
 Frequencies --    124.2591               133.0531               171.9443
 Red. masses --      4.6868                 5.5123                 5.5376
 Frc consts  --      0.0426                 0.0575                 0.0965
 IR Inten    --      1.8022                 1.6977                 0.9180

                     10                     11                     12
                      A                      A                      A
 Frequencies --    180.0049               206.5459               225.8938
 Red. masses --      1.1283                 5.3631                 5.4041
 Frc consts  --      0.0215                 0.1348                 0.1625
 IR Inten    --      0.7905                 1.9115                 1.1924

                     13                     14                     15
                      A                      A                      A
 Frequencies --    249.6266               276.4715               313.6207
 Red. masses --      5.8399                 4.9096                 4.8498
 Frc consts  --      0.2144                 0.2211                 0.2810
 IR Inten    --      0.4667                 1.4653                 2.1410

                     16                     17                     18
                      A                      A                      A
 Frequencies --    329.7394               340.5652               346.4846
 Red. masses --      3.2524                 2.8199                 3.1938
 Frc consts  --      0.2084                 0.1927                 0.2259
 IR Inten    --      3.4892                 0.9661                 9.7257

                     19                     20                     21
                      A                      A                      A
 Frequencies --    357.9245               370.4286               421.5434
 Red. masses --      5.2536                 4.2411                 4.4092
 Frc consts  --      0.3965                 0.3429                 0.4616
 IR Inten    --      5.4967                 7.0819                 4.0023

                     22                     23                     24
                      A                      A                      A
 Frequencies --    434.4105               473.7145               503.5155
 Red. masses --      4.0465                 5.1868                 3.8154
 Frc consts  --      0.4499                 0.6858                 0.5699
 IR Inten    --     17.9070                 9.1837                 8.4242

                     25                     26                     27
                      A                      A                      A
 Frequencies --    548.2516               559.2125               648.3095
 Red. masses --      3.1117                 5.8907                 2.2403
 Frc consts  --      0.5511                 1.0853                 0.5548
 IR Inten    --     36.3326                 0.4531                 0.7630

                     28                     29                     30
                      A                      A                      A
 Frequencies --    667.8220               697.7496               698.8298
 Red. masses --      4.0057                 6.3190                 2.4040
 Frc consts  --      1.0526                 1.8126                 0.6917
 IR Inten    --     22.0182                 5.9318                 2.7165

                     31                     32                     33
                      A                      A                      A
 Frequencies --    711.8765               723.7320               730.6861
 Red. masses --      1.7428                 4.2551                 6.6442
 Frc consts  --      0.5204                 1.3132                 2.0900
 IR Inten    --     30.9300                18.1381                 3.1502

                     34                     35                     36
                      A                      A                      A
 Frequencies --    767.8889               776.0599               784.1752
 Red. masses --      3.0080                 1.1561                 2.8418
 Frc consts  --      1.0450                 0.4102                 1.0296
 IR Inten    --      3.4343                 2.9190                17.0150

                     37                     38                     39
                      A                      A                      A
 Frequencies --    798.1602               813.6699               840.6629
 Red. masses --      2.7184                 1.9623                 2.8531
 Frc consts  --      1.0204                 0.7655                 1.1880
 IR Inten    --     13.1258                15.6087                48.8833

                     40                     41                     42
                      A                      A                      A
 Frequencies --    865.4067               903.3103               906.1937
 Red. masses --      3.4520                 1.4536                 2.6937
 Frc consts  --      1.5232                 0.6988                 1.3033
 IR Inten    --     21.4520                31.9486                29.3998

                     43                     44                     45
                      A                      A                      A
 Frequencies --    938.3796               951.3413               955.0342
 Red. masses --      1.6048                 1.2837                 2.1935
 Frc consts  --      0.8326                 0.6845                 1.1787
 IR Inten    --      9.3794                 1.8254                 4.0702

                     46                     47                     48
                      A                      A                      A
 Frequencies --    972.7758               979.9048               981.7783
 Red. masses --      1.4490                 1.2753                 1.7147
 Frc consts  --      0.8079                 0.7215                 0.9738
 IR Inten    --      5.5971                 1.5522                 0.0284

                     49                     50                     51
                      A                      A                      A
 Frequencies --   1004.2287              1018.5176              1054.3861
 Red. masses --      1.9444                 1.2195                 3.1845
 Frc consts  --      1.1553                 0.7453                 2.0859
 IR Inten    --      9.0433                53.6621                 0.5994

                     52                     53                     54
                      A                      A                      A
 Frequencies --   1114.3899              1121.5039              1139.2663
 Red. masses --      1.0485                 3.2533                 2.3107
 Frc consts  --      0.7672                 2.4109                 1.7671
 IR Inten    --      2.8646                12.3002                 3.1273

                     55                     56                     57
                      A                      A                      A
 Frequencies --   1164.4658              1214.2880              1227.9195
 Red. masses --      1.1767                 1.2443                 1.4650
 Frc consts  --      0.9401                 1.0810                 1.3014
 IR Inten    --     14.6444                39.7955                 3.5166

                     58                     59                     60
                      A                      A                      A
 Frequencies --   1234.1641              1260.7466              1268.5761
 Red. masses --      1.2692                 1.2210                 1.3040
 Frc consts  --      1.1390                 1.1435                 1.2364
 IR Inten    --     11.1937                14.0038                 5.3538

                     61                     62                     63
                      A                      A                      A
 Frequencies --   1286.1392              1314.6371              1330.0542
 Red. masses --      1.1712                 1.3042                 1.2113
 Frc consts  --      1.1415                 1.3280                 1.2625
 IR Inten    --      4.0103                 6.5324                 0.7609

                     64                     65                     66
                      A                      A                      A
 Frequencies --   1342.3404              1353.7944              1372.4047
 Red. masses --      1.9516                 1.1676                 1.4326
 Frc consts  --      2.0718                 1.2608                 1.5898
 IR Inten    --      4.2663                10.7045                 5.6145

                     67                     68                     69
                      A                      A                      A
 Frequencies --   1406.6706              1426.6091              1466.7336
 Red. masses --      2.7711                 2.0048                 1.0522
 Frc consts  --      3.2306                 2.4039                 1.3337
 IR Inten    --      3.3115                 3.9709                 6.2121

                     70                     71                     72
                      A                      A                      A
 Frequencies --   1469.2312              1480.8179              1485.3189
 Red. masses --      1.5510                 1.0643                 1.0793
 Frc consts  --      1.9727                 1.3751                 1.4029
 IR Inten    --      1.6158                 7.2061                 6.9443

                     73                     74                     75
                      A                      A                      A
 Frequencies --   1488.4134              1490.4992              1511.3174
 Red. masses --      3.5486                 1.1052                 5.0249
 Frc consts  --      4.6319                 1.4467                 6.7622
 IR Inten    --      1.3096                 5.1639                19.9367

                     76                     77                     78
                      A                      A                      A
 Frequencies --   1595.9043              1659.5106              3039.8322
 Red. masses --      5.4927                 5.2394                 1.0426
 Frc consts  --      8.2423                 8.5014                 5.6764
 IR Inten    --      5.5766                38.3854                26.5411

                     79                     80                     81
                      A                      A                      A
 Frequencies --   3041.7711              3051.7475              3071.9819
 Red. masses --      1.0427                 1.0561                 1.0850
 Frc consts  --      5.6844                 5.7950                 6.0330
 IR Inten    --     10.1518                16.2477                 7.6311

                     82                     83                     84
                      A                      A                      A
 Frequencies --   3086.8229              3110.7342              3122.4740
 Red. masses --      1.1069                 1.1093                 1.1074
 Frc consts  --      6.2143                 6.3247                 6.3613
 IR Inten    --      2.6070                13.7645                 7.5142

                     85                     86                     87
                      A                      A                      A
 Frequencies --   3125.3514              3138.3758              3141.4215
 Red. masses --      1.0825                 1.0828                 1.1028
 Frc consts  --      6.2296                 6.2833                 6.4119
 IR Inten    --      6.3721                 2.2028                 5.3092

                     88                     89                     90
                      A                      A                      A
 Frequencies --   3146.2521              3148.5585              3158.2000
 Red. masses --      1.0897                 1.0604                 1.0908
 Frc consts  --      6.3556                 6.1937                 6.4102
 IR Inten    --      8.5634                 3.5968                 9.6038

                     91                     92                     93
                      A                      A                      A
 Frequencies --   3160.6308              3183.6134              3239.0064
 Red. masses --      1.0902                 1.0868                 1.1151
 Frc consts  --      6.4165                 6.4898                 6.8929
 IR Inten    --      9.0464                 1.2965                 4.7531

 - Thermochemistry -
 -------------------
 Temperature   298.150 Kelvin.  Pressure   1.00000 Atm.
 Atom     1 has atomic number  6 and mass  12.00000

 Molecular mass:   280.04142 amu.
 Principal axes and moments of inertia in atomic units:
                           1         2         3
     Eigenvalues --  2205.90779********************
           X            1.00000  -0.00022  -0.00258
           Y            0.00003   0.99731  -0.07327
           Z            0.00259   0.07327   0.99731
 This molecule is an asymmetric top.
 Rotational symmetry number  1.
 Warning -- assumption of classical behavior for rotation
           may cause significant error
 Rotational temperatures (Kelvin)      0.03926     0.00703     0.00670
 Rotational constants (GHZ):           0.81814     0.14643     0.13953
 Zero-point vibrational energy     677583.5 (Joules/Mol)
                                  161.94635 (Kcal/Mol)
 Warning -- explicit consideration of  26 degrees of freedom as
           vibrations may cause significant error
 Vibrational temperatures:     23.15    40.60    57.27   100.24   110.78
          (Kelvin)            146.41   178.78   191.43   247.39   258.99
                              297.17   325.01   359.16   397.78   451.23
                              474.42   490.00   498.51   514.97   532.96
                              606.51   625.02   681.57   724.45   788.81
                              804.58   932.77   960.85  1003.91  1005.46
                             1024.23  1041.29  1051.29  1104.82  1116.58
                             1128.25  1148.37  1170.69  1209.53  1245.13
                             1299.66  1303.81  1350.12  1368.77  1374.08
                             1399.61  1409.86  1412.56  1444.86  1465.42
                             1517.03  1603.36  1613.59  1639.15  1675.41
                             1747.09  1766.70  1775.69  1813.93  1825.20
                             1850.47  1891.47  1913.65  1931.33  1947.81
                             1974.58  2023.89  2052.57  2110.30  2113.90
                             2130.57  2137.04  2141.49  2144.50  2174.45
                             2296.15  2387.67  4373.64  4376.43  4390.78
                             4419.90  4441.25  4475.65  4492.54  4496.68
                             4515.42  4519.80  4526.76  4530.07  4543.95
                             4547.44  4580.51  4660.21

 Zero-point correction=                           0.258078 (Hartree/Particle)
 Thermal correction to Energy=                    0.276131
 Thermal correction to Enthalpy=                  0.277075
 Thermal correction to Gibbs Free Energy=         0.209780
 Sum of electronic and zero-point Energies=          -1737.276645
 Sum of electronic and thermal Energies=             -1737.258592
 Sum of electronic and thermal Enthalpies=           -1737.257648
 Sum of electronic and thermal Free Energies=        -1737.324943

                     E (Thermal)             CV                S
                      KCal/Mol        Cal/Mol-Kelvin    Cal/Mol-Kelvin
 Total                  173.275             68.119            141.634
 Electronic               0.000              0.000              0.000
 Translational            0.889              2.981             42.788
 Rotational               0.889              2.981             34.219
 Vibrational            171.497             62.157             64.628
 Vibration     1          0.593              1.986              7.066
 Vibration     2          0.593              1.984              5.951
 Vibration     3          0.594              1.981              5.269
 Vibration     4          0.598              1.969              4.163
 Vibration     5          0.599              1.965              3.966
 Vibration     6          0.604              1.948              3.420
 Vibration     7          0.610              1.929              3.033
 Vibration     8          0.613              1.920              2.901
 Vibration     9          0.626              1.877              2.414
 Vibration    10          0.629              1.867              2.328
 Vibration    11          0.641              1.831              2.074
 Vibration    12          0.650              1.802              1.911
 Vibration    13          0.662              1.763              1.733
 Vibration    14          0.678              1.717              1.555
 Vibration    15          0.701              1.648              1.343
 Vibration    16          0.713              1.616              1.261
 Vibration    17          0.720              1.594              1.210
 Vibration    18          0.724              1.582              1.182
 Vibration    19          0.733              1.559              1.131
 Vibration    20          0.742              1.533              1.078
 Vibration    21          0.784              1.423              0.887
 Vibration    22          0.795              1.395              0.844
 Vibration    23          0.831              1.308              0.727
 Vibration    24          0.859              1.242              0.649
 Vibration    25          0.903              1.144              0.548
 Vibration    26          0.915              1.120              0.525

 Optimization completed.
    -- Stationary point found.
 Normal termination of Gaussian 16 at Fri May 19 21:27:44 2023.
