 Gaussian 16, Revision A.03,
 Gaussian 16:  ES64L-G16RevA.03 25-Dec-2016

 -----------------------------
 # opt freq b3lyp/6-31g(2df,p)
 -----------------------------

 -------------------
 Title Card Required
 -------------------
 Symbolic Z-matrix:
 Charge =  0 Multiplicity = 1

 SCF Done:  E(RB3LYP) =  -572.715490029     A.U. after   18 cycles
 SCF Done:  E(RB3LYP) =  -572.742639344     A.U. after   12 cycles
 SCF Done:  E(RB3LYP) =  -572.755761593     A.U. after   13 cycles
 SCF Done:  E(RB3LYP) =  -572.757463914     A.U. after   11 cycles
 SCF Done:  E(RB3LYP) =  -572.757591970     A.U. after   10 cycles
 SCF Done:  E(RB3LYP) =  -572.757618427     A.U. after   10 cycles
 SCF Done:  E(RB3LYP) =  -572.757621315     A.U. after    8 cycles
 SCF Done:  E(RB3LYP) =  -572.757621530     A.U. after    7 cycles
 Optimization completed.
    -- Stationary point found.
 Normal termination of Gaussian 16 at Wed May 17 09:28:44 2023.

 ----------------------------------------------------------------------
 #N Geom=AllCheck Guess=TCheck SCRF=Check GenChk RB3LYP/6-31G(2df,p) Fr
 eq
 ----------------------------------------------------------------------

 Structure from the checkpoint file:  "CdC[C]CCdCNdCCCdCNdO.chk"
 -------------------
 Title Card Required
 -------------------
 Charge =  0 Multiplicity = 1

                         Standard orientation:
 ---------------------------------------------------------------------
 Center     Atomic      Atomic             Coordinates (Angstroms)
 Number     Number       Type             X           Y           Z
 ---------------------------------------------------------------------
      1          6           0        7.297189    0.160089    0.000136
      2          6           0        6.095316   -0.449328   -0.000010
      3          6           0        4.914828    0.386139   -0.000088
      4          6           0        3.670522   -0.432095   -0.000064
      5          6           0        2.371581    0.326189   -0.000055
      6          6           0        1.159801   -0.237731   -0.000022
      7          7           0       -0.001015    0.534221   -0.000014
      8          6           0       -1.126465   -0.056627    0.000017
      9          6           0       -2.420071    0.722127    0.000002
     10          6           0       -3.652178   -0.130417    0.000010
     11          6           0       -4.914927    0.313698    0.000012
     12          7           0       -5.940545   -0.666786    0.000021
     13          8           0       -7.067034   -0.199955    0.000021
     14          1           0        8.237296   -0.386438    0.000261
     15          1           0        7.337940    1.244699    0.000150
     16          1           0        6.065115   -1.548336   -0.000022
     17          1           0        3.720474   -1.127359    0.861915
     18          1           0        3.720492   -1.127290   -0.862100
     19          1           0        2.444892    1.409866   -0.000076
     20          1           0        1.046800   -1.328623    0.000001
     21          1           0       -1.208502   -1.156398    0.000025
     22          1           0       -2.430229    1.394594   -0.868857
     23          1           0       -2.430233    1.394618    0.868842
     24          1           0       -3.529767   -1.213012    0.000015
     25          1           0       -5.220659    1.359011    0.000008
 ---------------------------------------------------------------------

 SCF Done:  E(RB3LYP) =  -572.757621530     A.U. after    1 cycles

 The electronic state is 1-A.
 Alpha  occ. eigenvalues --  -19.17602 -14.42696 -14.33451 -10.23876 -10.23170
 Alpha  occ. eigenvalues --  -10.22616 -10.22018 -10.21755 -10.20883 -10.20129
 Alpha  occ. eigenvalues --  -10.19954 -10.19561 -10.18590  -1.13214  -0.93777
 Alpha  occ. eigenvalues --   -0.84560  -0.82151  -0.79260  -0.77093  -0.72226
 Alpha  occ. eigenvalues --   -0.66455  -0.62592  -0.58723  -0.57411  -0.55677
 Alpha  occ. eigenvalues --   -0.53660  -0.50618  -0.49599  -0.47349  -0.46322
 Alpha  occ. eigenvalues --   -0.46128  -0.45490  -0.43882  -0.43699  -0.41732
 Alpha  occ. eigenvalues --   -0.40000  -0.39278  -0.38019  -0.36648  -0.36421
 Alpha  occ. eigenvalues --   -0.35464  -0.31078  -0.28769  -0.26503  -0.23629
 Alpha  occ. eigenvalues --   -0.21420  -0.19712
 Alpha virt. eigenvalues --   -0.09735  -0.09097  -0.04115   0.02072   0.03289
 Alpha virt. eigenvalues --    0.06287   0.08711   0.10181   0.11230   0.11781
 Alpha virt. eigenvalues --    0.12210   0.13822   0.14321   0.15971   0.17064

 Mulliken charges:
               1
     1  C   -0.234424
     2  C    0.006911
     3  C   -0.133425
     4  C   -0.264833
     5  C   -0.113221
     6  C    0.020659
     7  N   -0.187364
     8  C    0.036747
     9  C   -0.323493
    10  C   -0.024488
    11  C   -0.002611
    12  N    0.006970
    13  O   -0.250843
    14  H    0.133798
    15  H    0.148673
    16  H    0.067490
    17  H    0.138453
    18  H    0.138466
    19  H    0.118760
    20  H    0.069975
    21  H    0.088724
    22  H    0.162496
    23  H    0.162495
    24  H    0.126923
    25  H    0.107162
 Sum of Mulliken charges =  -0.00000

 Dipole moment (field-independent basis, Debye):
    X=              5.1189    Y=             -1.4451    Z=              0.0002  Tot=              5.3189
 Quadrupole moment (field-independent basis, Debye-Ang):
   XX=            -88.3221   YY=            -76.1591   ZZ=            -76.4443
   XY=            -15.6546   XZ=              0.0018   YZ=              0.0005

  Exact polarizability: 299.915   8.142 105.042   0.002  -0.000  64.966
 Approx polarizability: 382.358  20.993 166.955   0.002   0.000 107.258

 ******    5 imaginary frequencies (negative Signs) ******

                      1                      2                      3
                      A                      A                      A
 Frequencies --   -181.2069               -86.4171               -77.3366
 Red. masses --      1.4251                 2.1445                 3.2697
 Frc consts  --      0.0276                 0.0094                 0.0115
 IR Inten    --      0.0441                 0.4752                 9.9261

                      4                      5                      6
                      A                      A                      A
 Frequencies --    -61.7890               -23.7821                35.8340
 Red. masses --      2.7818                 2.7250                 6.2075
 Frc consts  --      0.0063                 0.0009                 0.0047
 IR Inten    --     12.9885                 4.8809                 1.5863

                      7                      8                      9
                      A                      A                      A
 Frequencies --     54.7277                94.7130               125.2471
 Red. masses --      3.2549                 5.1505                 5.3532
 Frc consts  --      0.0057                 0.0272                 0.0495
 IR Inten    --      6.0208                 3.6065                 0.6690

                     10                     11                     12
                      A                      A                      A
 Frequencies --    179.5507               201.1370               214.1917
 Red. masses --      4.8005                 2.4652                 6.9229
 Frc consts  --      0.0912                 0.0588                 0.1871
 IR Inten    --      0.5019                 1.0777                 0.2839

                     13                     14                     15
                      A                      A                      A
 Frequencies --    247.9392               285.1097               328.6612
 Red. masses --      2.5318                 4.0518                 4.3817
 Frc consts  --      0.0917                 0.1941                 0.2789
 IR Inten    --      1.9416                 2.7614                 0.1086

                     16                     17                     18
                      A                      A                      A
 Frequencies --    390.1385               405.3679               472.9378
 Red. masses --      6.0240                 4.1673                 2.8826
 Frc consts  --      0.5402                 0.4035                 0.3799
 IR Inten    --      0.8380                 0.6084                 0.0131

                     19                     20                     21
                      A                      A                      A
 Frequencies --    508.4974               571.6572               600.2057
 Red. masses --      3.3056                 4.0441                 3.4970
 Frc consts  --      0.5036                 0.7787                 0.7422
 IR Inten    --      6.8450                 5.8448                 8.3099

                     22                     23                     24
                      A                      A                      A
 Frequencies --    655.5921               677.7171               731.1365
 Red. masses --      4.1295                 1.4340                 1.5363
 Frc consts  --      1.0457                 0.3881                 0.4839
 IR Inten    --      7.2042                 0.0496                10.7521

                     25                     26                     27
                      A                      A                      A
 Frequencies --    860.9788               906.7454               929.2238
 Red. masses --      1.5451                 1.6857                 2.1374
 Frc consts  --      0.6748                 0.8166                 1.0874
 IR Inten    --      4.2255                 0.9095                 6.5218

                     28                     29                     30
                      A                      A                      A
 Frequencies --    984.0501              1002.9550              1014.0850
 Red. masses --      1.2856                 1.1389                 1.1717
 Frc consts  --      0.7335                 0.6750                 0.7100
 IR Inten    --     18.2290                 3.3656                11.8551

                     31                     32                     33
                      A                      A                      A
 Frequencies --   1031.2492              1049.3404              1059.3432
 Red. masses --      1.4497                 5.5988                 1.3594
 Frc consts  --      0.9084                 3.6323                 0.8988
 IR Inten    --     24.6678                80.4318                18.2735

                     34                     35                     36
                      A                      A                      A
 Frequencies --   1062.5028              1082.8855              1098.0027
 Red. masses --      3.2932                 2.7226                 2.7965
 Frc consts  --      2.1905                 1.8810                 1.9864
 IR Inten    --    161.0504                71.4913                26.2829

                     37                     38                     39
                      A                      A                      A
 Frequencies --   1121.7859              1137.9759              1141.6016
 Red. masses --      3.4291                 1.1624                 2.1388
 Frc consts  --      2.5424                 0.8869                 1.6423
 IR Inten    --     72.4912                 1.7507                14.1421

                     40                     41                     42
                      A                      A                      A
 Frequencies --   1170.5374              1196.9106              1226.3582
 Red. masses --      2.5122                 1.1411                 1.3448
 Frc consts  --      2.0281                 0.9632                 1.1916
 IR Inten    --    109.4777                 0.1027                43.6665

                     43                     44                     45
                      A                      A                      A
 Frequencies --   1255.1229              1300.3073              1307.6137
 Red. masses --      1.4049                 1.3722                 1.3156
 Frc consts  --      1.3040                 1.3670                 1.3254
 IR Inten    --      3.0877                42.3413                20.9319

                     46                     47                     48
                      A                      A                      A
 Frequencies --   1323.9347              1328.7698              1338.7029
 Red. masses --      1.4405                 1.2056                 1.5219
 Frc consts  --      1.4876                 1.2541                 1.6069
 IR Inten    --      1.4375                22.4602                22.2063

                     49                     50                     51
                      A                      A                      A
 Frequencies --   1360.1420              1403.9390              1422.2699
 Red. masses --      1.3993                 1.4620                 1.0613
 Frc consts  --      1.5253                 1.6978                 1.2649
 IR Inten    --     22.0683                 4.7330                11.9872

                     52                     53                     54
                      A                      A                      A
 Frequencies --   1429.2284              1583.0824              1631.5349
 Red. masses --      1.3560                10.9157                 3.8295
 Frc consts  --      1.6320                16.1179                 6.0060
 IR Inten    --     57.0130               259.9326                50.7395

                     55                     56                     57
                      A                      A                      A
 Frequencies --   1688.1073              1703.0752              1731.4210
 Red. masses --      7.8542                 6.8813                 7.1262
 Frc consts  --     13.1873                11.7595                12.5867
 IR Inten    --     55.4926                 2.5766                12.4380

                     58                     59                     60
                      A                      A                      A
 Frequencies --   2913.7671              2931.4965              2973.2035
 Red. masses --      1.0609                 1.0931                 1.0841
 Frc consts  --      5.3067                 5.5349                 5.6463
 IR Inten    --     52.1501                 3.6576                44.1551

                     61                     62                     63
                      A                      A                      A
 Frequencies --   3007.7562              3017.4072              3038.6618
 Red. masses --      1.0853                 1.0607                 1.0979
 Frc consts  --      5.7849                 5.6900                 5.9729
 IR Inten    --     68.2032                 4.1244                 1.6351

                     64                     65                     66
                      A                      A                      A
 Frequencies --   3043.9572              3139.2924              3144.8434
 Red. masses --      1.0876                 1.0622                 1.0882
 Frc consts  --      5.9372                 6.1675                 6.3411
 IR Inten    --     50.9386                18.8236                12.0613

                     67                     68                     69
                      A                      A                      A
 Frequencies --   3147.0643              3182.9482              3240.5571
 Red. masses --      1.0925                 1.0894                 1.1149
 Frc consts  --      6.3749                 6.5027                 6.8979
 IR Inten    --      0.0669                 6.0626                 4.0778

 - Thermochemistry -
 -------------------
 Temperature   298.150 Kelvin.  Pressure   1.00000 Atm.
 Atom     1 has atomic number  6 and mass  12.00000

 Molecular mass:   176.09496 amu.
 Principal axes and moments of inertia in atomic units:
                           1         2         3
     Eigenvalues --   175.93404********************
           X            0.99999  -0.00492   0.00000
           Y            0.00492   0.99999   0.00000
           Z           -0.00000  -0.00000   1.00000
 This molecule is an asymmetric top.
 Rotational symmetry number  1.
 Rotational temperatures (Kelvin)      0.49231     0.00656     0.00648
 Rotational constants (GHZ):          10.25806     0.13666     0.13509
    5 imaginary frequencies ignored.
 Zero-point vibrational energy     505093.9 (Joules/Mol)
                                  120.72033 (Kcal/Mol)
 Warning -- explicit consideration of  16 degrees of freedom as
           vibrations may cause significant error
 Vibrational temperatures:     51.56    78.74   136.27   180.20   258.33
          (Kelvin)            289.39   308.17   356.73   410.21   472.87
                              561.32   583.23   680.45   731.61   822.49
                              863.56   943.25   975.08  1051.94  1238.76
                             1304.60  1336.95  1415.83  1443.03  1459.04
                             1483.74  1509.77  1524.16  1528.70  1558.03
                             1579.78  1614.00  1637.29  1642.51  1684.14
                             1722.09  1764.46  1805.84  1870.85  1881.36
                             1904.85  1911.80  1926.09  1956.94  2019.96
                             2046.33  2056.34  2277.70  2347.41  2428.81
                             2450.35  2491.13  4192.26  4217.77  4277.78
                             4327.49  4341.38  4371.96  4379.58  4516.74
                             4524.73  4527.92  4579.55  4662.44

 Zero-point correction=                           0.192380 (Hartree/Particle)
 Thermal correction to Energy=                    0.203787
 Thermal correction to Enthalpy=                  0.204731
 Thermal correction to Gibbs Free Energy=         0.153513
 Sum of electronic and zero-point Energies=           -572.565241
 Sum of electronic and thermal Energies=              -572.553834
 Sum of electronic and thermal Enthalpies=            -572.552890
 Sum of electronic and thermal Free Energies=         -572.604109

                     E (Thermal)             CV                S
                      KCal/Mol        Cal/Mol-Kelvin    Cal/Mol-Kelvin
 Total                  127.878             41.976            107.798
 Electronic               0.000              0.000              0.000
 Translational            0.889              2.981             41.405
 Rotational               0.889              2.981             31.807
 Vibrational            126.101             36.014             34.587
 Vibration     1          0.594              1.982              5.477
 Vibration     2          0.596              1.976              4.639
 Vibration     3          0.603              1.953              3.560
 Vibration     4          0.610              1.928              3.018
 Vibration     5          0.629              1.867              2.333
 Vibration     6          0.638              1.838              2.123
 Vibration     7          0.644              1.819              2.008
 Vibration     8          0.662              1.766              1.745
 Vibration     9          0.683              1.701              1.503
 Vibration    10          0.712              1.618              1.267
 Vibration    11          0.758              1.491              1.000
 Vibration    12          0.770              1.459              0.943
 Vibration    13          0.830              1.310              0.729
 Vibration    14          0.864              1.231              0.637
 Vibration    15          0.928              1.093              0.501
 Vibration    16          0.958              1.031              0.449

 Optimization completed.
    -- Stationary point found.
 Normal termination of Gaussian 16 at Wed May 17 10:10:02 2023.
