 Gaussian 16, Revision A.03,
 Gaussian 16:  ES64L-G16RevA.03 25-Dec-2016

 -----------------------------
 # opt freq b3lyp/6-31g(2df,p)
 -----------------------------

 -------------------
 Title Card Required
 -------------------
 Symbolic Z-matrix:
 Charge =  0 Multiplicity = 1

 SCF Done:  E(RB3LYP) =  -1389.84512450     A.U. after   36 cycles
 SCF Done:  E(RB3LYP) =  -1389.87652034     A.U. after   38 cycles
 SCF Done:  E(RB3LYP) =  -1389.89600646     A.U. after   39 cycles
 SCF Done:  E(RB3LYP) =  -1389.90479704     A.U. after   29 cycles
 SCF Done:  E(RB3LYP) =  -1389.90992353     A.U. after   25 cycles
 SCF Done:  E(RB3LYP) =  -1389.91174560     A.U. after   18 cycles
 SCF Done:  E(RB3LYP) =  -1389.91239808     A.U. after   21 cycles
 SCF Done:  E(RB3LYP) =  -1389.91267485     A.U. after   19 cycles
 SCF Done:  E(RB3LYP) =  -1389.91348656     A.U. after   24 cycles
 SCF Done:  E(RB3LYP) =  -1389.91420346     A.U. after   27 cycles
 SCF Done:  E(RB3LYP) =  -1389.91924339     A.U. after   16 cycles
 SCF Done:  E(RB3LYP) =  -1389.91925321     A.U. after   17 cycles
 SCF Done:  E(RB3LYP) =  -1389.91925430     A.U. after   15 cycles
 SCF Done:  E(RB3LYP) =  -1389.91925907     A.U. after   17 cycles
 SCF Done:  E(RB3LYP) =  -1389.91926620     A.U. after   19 cycles
 SCF Done:  E(RB3LYP) =  -1389.91926743     A.U. after   14 cycles
 SCF Done:  E(RB3LYP) =  -1389.91926818     A.U. after   12 cycles
 SCF Done:  E(RB3LYP) =  -1389.91926902     A.U. after   17 cycles
 SCF Done:  E(RB3LYP) =  -1389.91926925     A.U. after   16 cycles
 Optimization completed.
    -- Stationary point found.
 Normal termination of Gaussian 16 at Thu May 18 20:41:59 2023.

 ----------------------------------------------------------------------
 #N Geom=AllCheck Guess=TCheck SCRF=Check GenChk RB3LYP/6-31G(2df,p) Fr
 eq
 ----------------------------------------------------------------------

 Structure from the checkpoint file:  "CdC[N]CdCCqdCNdSrCCCCS[CH]N.chk"
 -------------------
 Title Card Required
 -------------------
 Charge =  0 Multiplicity = 1

                         Standard orientation:
 ---------------------------------------------------------------------
 Center     Atomic      Atomic             Coordinates (Angstroms)
 Number     Number       Type             X           Y           Z
 ---------------------------------------------------------------------
      1          6           0       -6.414102   -2.860270   -0.841250
      2          6           0       -5.605960   -1.813266   -0.636646
      3          7           0       -4.330035   -1.955277   -0.113064
      4          6           0       -3.634987   -0.874406    0.042003
      5          6           0       -2.305800   -0.939336    0.583803
      6          6           0       -1.439251    0.091316    0.800682
      7          6           0       -1.631612    1.505047    0.524161
      8          7           0       -2.652210    2.005814   -0.087150
      9         16           0       -2.921607    3.580493   -0.440962
     10          6           0       -0.066688   -0.229812    1.364015
     11          6           0        1.024327   -0.147560    0.279475
     12          6           0        2.437148   -0.389559    0.826091
     13          6           0        3.474237   -0.268973   -0.289661
     14         16           0        5.168128   -0.519579    0.395031
     15          6           0        6.125460   -0.135326   -0.964108
     16          7           0        7.431589   -0.440358   -1.030142
     17          1           0       -7.408710   -2.730657   -1.250539
     18          1           0       -6.087069   -3.865076   -0.598523
     19          1           0       -5.946659   -0.801576   -0.885175
     20          1           0       -4.022318    0.112881   -0.229869
     21          1           0       -1.983804   -1.944409    0.848227
     22          1           0       -0.826938    2.169611    0.870479
     23          1           0       -0.066641   -1.231197    1.806547
     24          1           0        0.180489    0.476547    2.168155
     25          1           0        0.982968    0.839725   -0.196618
     26          1           0        0.798458   -0.878527   -0.506747
     27          1           0        2.498517   -1.384539    1.283629
     28          1           0        2.661248    0.338199    1.615230
     29          1           0        3.450671    0.726858   -0.740795
     30          1           0        3.318284   -1.019960   -1.067336
     31          1           0        5.700024    0.414579   -1.794500
     32          1           0        7.887138   -0.977204   -0.309522
     33          1           0        7.997972   -0.118262   -1.796653
 ---------------------------------------------------------------------

 SCF Done:  E(RB3LYP) =  -1389.91926925     A.U. after    3 cycles

 The electronic state is 1-A.
 Alpha  occ. eigenvalues --  -88.95701 -88.81447 -14.44427 -14.31487 -14.28513
 Alpha  occ. eigenvalues --  -10.32521 -10.26785 -10.22156 -10.19854 -10.18440
 Alpha  occ. eigenvalues --  -10.18327 -10.18027 -10.17872 -10.17435 -10.15372
 Alpha  occ. eigenvalues --  -10.14329  -8.01940  -7.87608  -5.98361  -5.97997
 Alpha  occ. eigenvalues --   -5.97630  -5.84140  -5.83446  -5.83401  -1.01280
 Alpha  occ. eigenvalues --   -0.88857  -0.88158  -0.87238  -0.82025  -0.78587
 Alpha  occ. eigenvalues --   -0.74082  -0.71780  -0.68730  -0.66485  -0.65521
 Alpha  occ. eigenvalues --   -0.61962  -0.61416  -0.57976  -0.55539  -0.55393
 Alpha  occ. eigenvalues --   -0.51943  -0.51559  -0.48746  -0.48651  -0.46558
 Alpha  occ. eigenvalues --   -0.45090  -0.44250  -0.43352  -0.42279  -0.41957
 Alpha  occ. eigenvalues --   -0.39524  -0.38801  -0.37905  -0.37183  -0.36785
 Alpha  occ. eigenvalues --   -0.36222  -0.34511  -0.34380  -0.34052  -0.32817
 Alpha  occ. eigenvalues --   -0.32533  -0.31446  -0.25793  -0.25319  -0.21808
 Alpha  occ. eigenvalues --   -0.20244  -0.15221  -0.13360
 Alpha virt. eigenvalues --   -0.12235  -0.04279  -0.03797   0.01575   0.03401
 Alpha virt. eigenvalues --    0.03672   0.04178   0.07171   0.08866   0.09106
 Alpha virt. eigenvalues --    0.09812   0.10358   0.11523   0.12785   0.13569

 Mulliken charges:
               1
     1  C   -0.362838
     2  C    0.109014
     3  N   -0.228561
     4  C   -0.010839
     5  C   -0.244499
     6  C    0.300730
     7  C   -0.051010
     8  N   -0.125076
     9  S   -0.341463
    10  C   -0.308019
    11  C   -0.177558
    12  C   -0.205456
    13  C   -0.222870
    14  S    0.000941
    15  C   -0.003444
    16  N   -0.431202
    17  H    0.103607
    18  H    0.100879
    19  H    0.081006
    20  H    0.127376
    21  H    0.073832
    22  H    0.054172
    23  H    0.102031
    24  H    0.104294
    25  H    0.116968
    26  H    0.112170
    27  H    0.123803
    28  H    0.125723
    29  H    0.151963
    30  H    0.155045
    31  H    0.170272
    32  H    0.299596
    33  H    0.299415
 Sum of Mulliken charges =  -0.00000

 Dipole moment (field-independent basis, Debye):
    X=             22.3265    Y=             -3.9388    Z=             -1.5998  Tot=             22.7276
 Quadrupole moment (field-independent basis, Debye-Ang):
   XX=            -39.2576   YY=           -135.3148   ZZ=           -107.7479
   XY=              3.1746   XZ=            -19.1899   YZ=              1.2926

  Exact polarizability:1025.354 -98.133 299.810 -12.970  -1.022 129.859
 Approx polarizability:****************3103.180-656.362 237.510 246.787

                      1                      2                      3
                      A                      A                      A
 Frequencies --     13.6489                27.9355                31.3609
 Red. masses --      5.5368                 4.9063                 4.9637
 Frc consts  --      0.0006                 0.0023                 0.0029
 IR Inten    --      1.9417                 0.9913                 2.2069

                      4                      5                      6
                      A                      A                      A
 Frequencies --     42.9842                61.8846                67.0978
 Red. masses --      2.6416                 2.7656                 4.9993
 Frc consts  --      0.0029                 0.0062                 0.0133
 IR Inten    --      5.1624                14.5864                 6.5574

                      7                      8                      9
                      A                      A                      A
 Frequencies --     74.2726               100.1557               102.5065
 Red. masses --      3.7027                 1.9913                 2.9368
 Frc consts  --      0.0120                 0.0118                 0.0182
 IR Inten    --      2.2220                 6.9001                 1.2424

                     10                     11                     12
                      A                      A                      A
 Frequencies --    112.0500               133.3499               156.8779
 Red. masses --      3.3667                 2.1049                 4.1106
 Frc consts  --      0.0249                 0.0221                 0.0596
 IR Inten    --     12.1864                 2.0968                16.3646

                     13                     14                     15
                      A                      A                      A
 Frequencies --    177.2811               179.5188               185.7778
 Red. masses --      4.8881                 4.6274                 1.7218
 Frc consts  --      0.0905                 0.0879                 0.0350
 IR Inten    --     13.1449                18.1565               100.0377

                     16                     17                     18
                      A                      A                      A
 Frequencies --    188.2381               220.8890               262.2832
 Red. masses --      2.2953                 4.0704                 4.3070
 Frc consts  --      0.0479                 0.1170                 0.1746
 IR Inten    --     45.3774                 4.7080                12.5320

                     19                     20                     21
                      A                      A                      A
 Frequencies --    297.7822               327.9655               356.3107
 Red. masses --      3.5237                 3.4853                 4.3290
 Frc consts  --      0.1841                 0.2209                 0.3238
 IR Inten    --      4.1557                 3.6940                 7.8752

                     22                     23                     24
                      A                      A                      A
 Frequencies --    374.5815               387.3421               404.3975
 Red. masses --      3.4377                 3.1429                 1.5774
 Frc consts  --      0.2842                 0.2778                 0.1520
 IR Inten    --     74.7254                26.7637                23.1063

                     25                     26                     27
                      A                      A                      A
 Frequencies --    435.2697               518.9862               533.0323
 Red. masses --      3.4865                 3.5514                 3.2530
 Frc consts  --      0.3892                 0.5636                 0.5446
 IR Inten    --      0.7705                67.8043                22.2022

                     28                     29                     30
                      A                      A                      A
 Frequencies --    613.5630               669.5382               675.9328
 Red. masses --      3.6401                 4.0296                 1.1870
 Frc consts  --      0.8074                 1.0643                 0.3195
 IR Inten    --      7.0305                22.9604                52.6477

                     31                     32                     33
                      A                      A                      A
 Frequencies --    722.7064               737.9684               740.3695
 Red. masses --      5.3641                 1.4531                 1.0839
 Frc consts  --      1.6507                 0.4663                 0.3501
 IR Inten    --     26.9735                 0.0449                 7.6963

                     34                     35                     36
                      A                      A                      A
 Frequencies --    777.0540               792.3526               852.0846
 Red. masses --      1.3008                 2.9085                 6.4013
 Frc consts  --      0.4628                 1.0759                 2.7383
 IR Inten    --    120.6005               200.4589               519.5789

                     37                     38                     39
                      A                      A                      A
 Frequencies --    894.2032               901.8203               903.4665
 Red. masses --      1.4320                 1.3962                 1.4712
 Frc consts  --      0.6746                 0.6690                 0.7076
 IR Inten    --     34.6956                39.5867                 2.2289

                     40                     41                     42
                      A                      A                      A
 Frequencies --    915.2809               940.5545               990.0446
 Red. masses --      1.4406                 2.8542                 2.3449
 Frc consts  --      0.7110                 1.4876                 1.3542
 IR Inten    --      0.5953                79.4708                28.3735

                     43                     44                     45
                      A                      A                      A
 Frequencies --   1004.5424              1010.5420              1041.5615
 Red. masses --      1.2848                 3.5502                 3.1196
 Frc consts  --      0.7639                 2.1360                 1.9940
 IR Inten    --      1.4681                 0.3881                 0.3719

                     46                     47                     48
                      A                      A                      A
 Frequencies --   1044.7381              1057.0189              1061.6104
 Red. masses --      1.4400                 1.5874                 2.5385
 Frc consts  --      0.9260                 1.0450                 1.6856
 IR Inten    --      9.5946                 2.4143                 8.4997

                     49                     50                     51
                      A                      A                      A
 Frequencies --   1107.7724              1118.6517              1138.7870
 Red. masses --      1.2979                 1.2434                 2.8376
 Frc consts  --      0.9384                 0.9168                 2.1681
 IR Inten    --      4.8811                42.6292               160.4141

                     52                     53                     54
                      A                      A                      A
 Frequencies --   1197.4459              1228.7251              1235.0415
 Red. masses --      2.5530                 1.2015                 2.2409
 Frc consts  --      2.1568                 1.0687                 2.0139
 IR Inten    --     10.6837                13.8573                71.4944

                     55                     56                     57
                      A                      A                      A
 Frequencies --   1258.8034              1291.9241              1314.8932
 Red. masses --      1.3543                 1.3038                 1.2483
 Frc consts  --      1.2644                 1.2821                 1.2716
 IR Inten    --     20.3999                39.2471               142.4237

                     58                     59                     60
                      A                      A                      A
 Frequencies --   1316.4894              1324.9825              1328.5469
 Red. masses --      1.6162                 1.2251                 1.0949
 Frc consts  --      1.6503                 1.2672                 1.1386
 IR Inten    --   1098.5602                 2.7842                 1.0739

                     61                     62                     63
                      A                      A                      A
 Frequencies --   1335.3266              1356.6641              1377.9180
 Red. masses --      1.2311                 1.4021                 1.3594
 Frc consts  --      1.2933                 1.5205                 1.5208
 IR Inten    --      3.2752                49.8342                93.5037

                     64                     65                     66
                      A                      A                      A
 Frequencies --   1385.1640              1407.0810              1440.9959
 Red. masses --      1.4698                 1.8182                 1.3333
 Frc consts  --      1.6616                 2.1210                 1.6312
 IR Inten    --     30.7134                 4.8013                87.3914

                     67                     68                     69
                      A                      A                      A
 Frequencies --   1453.4341              1472.7361              1481.4656
 Red. masses --      2.2787                 1.1005                 1.0785
 Frc consts  --      2.8361                 1.4063                 1.3946
 IR Inten    --    999.0270                 5.3710                 0.4051

                     70                     71                     72
                      A                      A                      A
 Frequencies --   1489.4724              1507.4665              1535.8720
 Red. masses --      1.0905                 1.0997                 6.4843
 Frc consts  --      1.4254                 1.4724                 9.0120
 IR Inten    --      1.7518                 4.2189               530.0429

                     73                     74                     75
                      A                      A                      A
 Frequencies --   1614.9697              1634.1522              1656.3020
 Red. masses --      7.2910                 5.2987                 1.2309
 Frc consts  --     11.2039                 8.3369                 1.9895
 IR Inten    --    114.8543               105.0456               567.9228

                     76                     77                     78
                      A                      A                      A
 Frequencies --   1694.8354              2989.7590              3013.6895
 Red. masses --      4.5772                 1.0815                 1.0635
 Frc consts  --      7.7464                 5.6957                 5.6910
 IR Inten    --      0.7960                65.8155                25.0798

                     79                     80                     81
                      A                      A                      A
 Frequencies --   3023.8928              3033.6798              3053.7500
 Red. masses --      1.0583                 1.0594                 1.0992
 Frc consts  --      5.7018                 5.7447                 6.0392
 IR Inten    --      3.4535                33.9835                 1.6653

                     82                     83                     84
                      A                      A                      A
 Frequencies --   3054.6158              3060.3376              3069.4075
 Red. masses --      1.0864                 1.0565                 1.1003
 Frc consts  --      5.9725                 5.8296                 6.1076
 IR Inten    --     62.7206                15.2343                 2.0808

                     85                     86                     87
                      A                      A                      A
 Frequencies --   3073.9382              3085.5895              3124.0836
 Red. masses --      1.0869                 1.1043                 1.1093
 Frc consts  --      6.0510                 6.1944                 6.3791
 IR Inten    --      4.8777                41.6406                 9.0839

                     88                     89                     90
                      A                      A                      A
 Frequencies --   3146.5848              3160.3434              3214.9961
 Red. masses --      1.0870                 1.0609                 1.0895
 Frc consts  --      6.3409                 6.2429                 6.6352
 IR Inten    --      5.9512                 7.3842               273.9960

                     91                     92                     93
                      A                      A                      A
 Frequencies --   3251.6861              3601.2443              3724.4507
 Red. masses --      1.1160                 1.0456                 1.1041
 Frc consts  --      6.9524                 7.9893                 9.0238
 IR Inten    --      9.6108              1349.6307                93.0815

 - Thermochemistry -
 -------------------
 Temperature   298.150 Kelvin.  Pressure   1.00000 Atm.
 Atom     1 has atomic number  6 and mass  12.00000

 Molecular mass:   255.08639 amu.
 Principal axes and moments of inertia in atomic units:
                           1         2         3
     Eigenvalues --  3150.28620********************
           X            0.99994   0.01080  -0.00204
           Y           -0.01078   0.99991   0.00738
           Z            0.00212  -0.00736   0.99997
 This molecule is an asymmetric top.
 Rotational symmetry number  1.
 Warning -- assumption of classical behavior for rotation
           may cause significant error
 Rotational temperatures (Kelvin)      0.02749     0.00532     0.00467
 Rotational constants (GHZ):           0.57288     0.11080     0.09726
 Zero-point vibrational energy     696876.8 (Joules/Mol)
                                  166.55755 (Kcal/Mol)
 Warning -- explicit consideration of  28 degrees of freedom as
           vibrations may cause significant error
 Vibrational temperatures:     19.64    40.19    45.12    61.84    89.04
          (Kelvin)             96.54   106.86   144.10   147.48   161.21
                              191.86   225.71   255.07   258.29   267.29
                              270.83   317.81   377.37   428.44   471.87
                              512.65   538.94   557.30   581.84   626.26
                              746.71   766.91   882.78   963.32   972.52
                             1039.81  1061.77  1065.23  1118.01  1140.02
                             1225.96  1286.56  1297.52  1299.89  1316.89
                             1353.25  1424.45  1445.31  1453.94  1498.57
                             1503.15  1520.81  1527.42  1593.84  1609.49
                             1638.46  1722.86  1767.86  1776.95  1811.14
                             1858.79  1891.84  1894.13  1906.35  1911.48
                             1921.24  1951.94  1982.52  1992.94  2024.48
                             2073.27  2091.17  2118.94  2131.50  2143.02
                             2168.91  2209.78  2323.58  2351.18  2383.05
                             2438.49  4301.60  4336.03  4350.71  4364.79
                             4393.67  4394.91  4403.14  4416.19  4422.71
                             4439.48  4494.86  4527.23  4547.03  4625.66
                             4678.45  5181.39  5358.65

 Zero-point correction=                           0.265426 (Hartree/Particle)
 Thermal correction to Energy=                    0.285510
 Thermal correction to Enthalpy=                  0.286454
 Thermal correction to Gibbs Free Energy=         0.212184
 Sum of electronic and zero-point Energies=          -1389.653843
 Sum of electronic and thermal Energies=             -1389.633759
 Sum of electronic and thermal Enthalpies=           -1389.632815
 Sum of electronic and thermal Free Energies=        -1389.707085

                     E (Thermal)             CV                S
                      KCal/Mol        Cal/Mol-Kelvin    Cal/Mol-Kelvin
 Total                  179.160             68.976            156.314
 Electronic               0.000              0.000              0.000
 Translational            0.889              2.981             42.509
 Rotational               0.889              2.981             35.208
 Vibrational            177.383             63.014             78.597
 Vibration     1          0.593              1.986              7.393
 Vibration     2          0.593              1.984              5.971
 Vibration     3          0.594              1.983              5.741
 Vibration     4          0.595              1.980              5.117
 Vibration     5          0.597              1.973              4.396
 Vibration     6          0.598              1.970              4.237
 Vibration     7          0.599              1.966              4.037
 Vibration     8          0.604              1.949              3.451
 Vibration     9          0.605              1.947              3.406
 Vibration    10          0.607              1.939              3.233
 Vibration    11          0.613              1.920              2.897
 Vibration    12          0.621              1.895              2.587
 Vibration    13          0.628              1.870              2.357
 Vibration    14          0.629              1.867              2.333
 Vibration    15          0.632              1.859              2.270
 Vibration    16          0.633              1.856              2.245
 Vibration    17          0.648              1.809              1.952
 Vibration    18          0.670              1.742              1.647
 Vibration    19          0.691              1.678              1.429
 Vibration    20          0.711              1.620              1.270
 Vibration    21          0.732              1.562              1.138
 Vibration    22          0.746              1.524              1.061
 Vibration    23          0.756              1.497              1.010
 Vibration    24          0.770              1.461              0.947
 Vibration    25          0.796              1.393              0.842
 Vibration    26          0.874              1.208              0.612
 Vibration    27          0.888              1.177              0.580
 Vibration    28          0.973              1.003              0.427

                           ! Non-Optimized Parameters !
 Normal termination of Gaussian 16 at Thu May 18 22:45:54 2023.
