 Gaussian 16, Revision A.03,
 Gaussian 16:  ES64L-G16RevA.03 25-Dec-2016

 -----------------------------
 # opt freq b3lyp/6-31g(2df,p)
 -----------------------------

 -------------------
 Title Card Required
 -------------------
 Symbolic Z-matrix:
 Charge =  0 Multiplicity = 1

 SCF Done:  E(RB3LYP) =  -1196.64045257     A.U. after   22 cycles
 SCF Done:  E(RB3LYP) =  -1196.68082599     A.U. after   18 cycles
 SCF Done:  E(RB3LYP) =  -1196.70253108     A.U. after   18 cycles
 SCF Done:  E(RB3LYP) =  -1196.71029337     A.U. after   17 cycles
 SCF Done:  E(RB3LYP) =  -1196.72047096     A.U. after   20 cycles
 SCF Done:  E(RB3LYP) =  -1196.72370012     A.U. after   17 cycles
 SCF Done:  E(RB3LYP) =  -1196.72774632     A.U. after   17 cycles
 SCF Done:  E(RB3LYP) =  -1196.73168187     A.U. after   16 cycles
 SCF Done:  E(RB3LYP) =  -1196.73498633     A.U. after   16 cycles
 SCF Done:  E(RB3LYP) =  -1196.74440181     A.U. after   15 cycles
 SCF Done:  E(RB3LYP) =  -1196.81097382     A.U. after   10 cycles
 SCF Done:  E(RB3LYP) =  -1196.81099066     A.U. after   11 cycles
 SCF Done:  E(RB3LYP) =  -1196.81099404     A.U. after   10 cycles
 SCF Done:  E(RB3LYP) =  -1196.81099610     A.U. after    9 cycles
 SCF Done:  E(RB3LYP) =  -1196.81099743     A.U. after    9 cycles
 SCF Done:  E(RB3LYP) =  -1196.81099791     A.U. after    8 cycles
 SCF Done:  E(RB3LYP) =  -1196.81099810     A.U. after    8 cycles
 SCF Done:  E(RB3LYP) =  -1196.81099828     A.U. after    8 cycles
 SCF Done:  E(RB3LYP) =  -1196.81099838     A.U. after    8 cycles
 Optimization completed.
    -- Stationary point found.
 Normal termination of Gaussian 16 at Tue May 16 12:05:28 2023.

 ----------------------------------------------------------------------
 #N Geom=AllCheck Guess=TCheck SCRF=Check GenChk RB3LYP/6-31G(2df,p) Fr
 eq
 ----------------------------------------------------------------------

 Structure from the checkpoint file:  "CdCC1dC2[C]CdCdC1NdC2SS.chk"
 -------------------
 Title Card Required
 -------------------
 Charge =  0 Multiplicity = 1

                         Standard orientation:
 ---------------------------------------------------------------------
 Center     Atomic      Atomic             Coordinates (Angstroms)
 Number     Number       Type             X           Y           Z
 ---------------------------------------------------------------------
      1          6           0        2.021658    2.448039    0.825620
      2          6           0        1.337297    1.952110   -0.199473
      3          6           0        0.955982    0.513606   -0.341880
      4          6           0        1.484236   -0.225745   -1.516009
      5          6           0        2.230052   -1.188079   -1.234317
      6          6           0        2.835122   -1.799227   -0.103958
      7          6           0        2.061095   -1.487977    0.974499
      8          6           0        1.102333   -0.567809    0.927418
      9          7           0       -0.261519   -0.517171    1.208118
     10          6           0       -0.471800    0.168070    0.111942
     11         16           0       -1.947549    0.537180   -0.722406
     12         16           0       -3.389407   -0.609004    0.233737
     13          1           0        2.267093    3.503022    0.878639
     14          1           0        2.361594    1.820384    1.642682
     15          1           0        1.023417    2.593822   -1.019828
     16          1           0        3.827578   -2.232463   -0.092317
     17          1           0       -3.593607    0.206700    1.289654
 ---------------------------------------------------------------------

 SCF Done:  E(RB3LYP) =  -1196.81099838     A.U. after    1 cycles

 The electronic state is 1-A.
 Alpha  occ. eigenvalues --  -88.94417 -88.92108 -14.36727 -10.29507 -10.26455
 Alpha  occ. eigenvalues --  -10.25773 -10.24005 -10.21249 -10.21103 -10.19715
 Alpha  occ. eigenvalues --  -10.19096 -10.18635  -8.00560  -7.98699  -5.97075
 Alpha  occ. eigenvalues --   -5.96623  -5.96140  -5.95203  -5.94788  -5.94145
 Alpha  occ. eigenvalues --   -1.01172  -0.86050  -0.84011  -0.81183  -0.75805
 Alpha  occ. eigenvalues --   -0.72560  -0.70684  -0.66184  -0.59258  -0.56662
 Alpha  occ. eigenvalues --   -0.53058  -0.50737  -0.49633  -0.48258  -0.46179
 Alpha  occ. eigenvalues --   -0.44773  -0.43833  -0.40387  -0.38626  -0.37647
 Alpha  occ. eigenvalues --   -0.36945  -0.33185  -0.32506  -0.31086  -0.28452
 Alpha  occ. eigenvalues --   -0.27631  -0.25528  -0.23831  -0.22847
 Alpha virt. eigenvalues --   -0.09356  -0.06842  -0.06531  -0.04109  -0.00455
 Alpha virt. eigenvalues --    0.01483   0.02860   0.05350   0.09027   0.10406
 Alpha virt. eigenvalues --    0.12708   0.13294   0.14707   0.15834   0.17876

 Mulliken charges:
               1
     1  C   -0.310768
     2  C   -0.071780
     3  C    0.089255
     4  C   -0.255591
     5  C    0.141791
     6  C   -0.191103
     7  C   -0.126312
     8  C    0.211940
     9  N   -0.250455
    10  C    0.217004
    11  S   -0.004564
    12  S   -0.148074
    13  H    0.125848
    14  H    0.127266
    15  H    0.118213
    16  H    0.137780
    17  H    0.189548
 Sum of Mulliken charges =   0.00000

 Dipole moment (field-independent basis, Debye):
    X=             -0.5530    Y=              1.8887    Z=              0.2971  Tot=              1.9903
 Quadrupole moment (field-independent basis, Debye-Ang):
   XX=            -74.1308   YY=            -78.8932   ZZ=            -86.7795
   XY=             -1.2898   XZ=             -1.9163   YZ=              3.2178

  Exact polarizability: 185.780 -16.381 121.425   1.203  -5.477 112.864
 Approx polarizability: 308.874 -60.695 226.636  12.384 -38.258 272.511

                      1                      2                      3
                      A                      A                      A
 Frequencies --     46.2226                75.9637                91.0217
 Red. masses --      7.7155                 3.3569                 9.1352
 Frc consts  --      0.0097                 0.0114                 0.0446
 IR Inten    --      0.5015                 0.2879                 0.1817

                      4                      5                      6
                      A                      A                      A
 Frequencies --    111.9356               137.9958               200.3073
 Red. masses --      5.1685                 3.7023                 3.8181
 Frc consts  --      0.0382                 0.0415                 0.0903
 IR Inten    --      1.6128                 0.6131                 0.0474

                      7                      8                      9
                      A                      A                      A
 Frequencies --    220.3718               242.2771               266.0589
 Red. masses --      4.8073                 2.8982                 1.6021
 Frc consts  --      0.1376                 0.1002                 0.0668
 IR Inten    --      1.9783                 3.3363                14.2794

                     10                     11                     12
                      A                      A                      A
 Frequencies --    364.0686               397.0854               412.1859
 Red. masses --      3.5986                 7.5535                 5.3958
 Frc consts  --      0.2810                 0.7017                 0.5401
 IR Inten    --      1.5598                19.4072                 6.8163

                     13                     14                     15
                      A                      A                      A
 Frequencies --    465.5993               496.5301               509.9907
 Red. masses --      6.5550                10.2716                18.4710
 Frc consts  --      0.8372                 1.4920                 2.8305
 IR Inten    --     14.0595                23.7060                 9.5858

                     16                     17                     18
                      A                      A                      A
 Frequencies --    538.4165               570.1746               596.6351
 Red. masses --      9.5114                 8.7564                 4.0110
 Frc consts  --      1.6245                 1.6772                 0.8412
 IR Inten    --    131.9928                62.3634                 0.7689

                     19                     20                     21
                      A                      A                      A
 Frequencies --    614.2472               653.0491               730.0907
 Red. masses --      9.5202                 5.3009                 4.1539
 Frc consts  --      2.1163                 1.3320                 1.3045
 IR Inten    --     31.3624                 1.7951                25.6247

                     22                     23                     24
                      A                      A                      A
 Frequencies --    741.1615               845.0738               881.8509
 Red. masses --      3.2646                 1.7324                 1.0673
 Frc consts  --      1.0566                 0.7289                 0.4890
 IR Inten    --     10.8647                 6.4438                 9.8681

                     25                     26                     27
                      A                      A                      A
 Frequencies --    914.2984               967.7325               998.7177
 Red. masses --      3.9685                 1.3538                 3.9033
 Frc consts  --      1.9546                 0.7470                 2.2939
 IR Inten    --      8.7490                26.0009                69.4502

                     28                     29                     30
                      A                      A                      A
 Frequencies --   1022.3854              1037.1953              1104.8250
 Red. masses --      1.1201                 2.3692                 4.7510
 Frc consts  --      0.6898                 1.5017                 3.4168
 IR Inten    --      7.7178                21.2840                56.6014

                     31                     32                     33
                      A                      A                      A
 Frequencies --   1128.8686              1182.8966              1262.8705
 Red. masses --      8.4684                 4.2967                 1.5782
 Frc consts  --      6.3583                 3.5423                 1.4829
 IR Inten    --     20.5188                27.8409                14.5515

                     34                     35                     36
                      A                      A                      A
 Frequencies --   1314.7090              1351.6362              1446.4535
 Red. masses --      1.2639                 3.9163                 1.2281
 Frc consts  --      1.2872                 4.2154                 1.5139
 IR Inten    --      1.4755                33.7232                19.7444

                     37                     38                     39
                      A                      A                      A
 Frequencies --   1471.6055              1681.4999              1701.5833
 Red. masses --      9.3971                11.3738                 5.0288
 Frc consts  --     11.9902                18.9474                 8.5788
 IR Inten    --    146.7775                85.6011                 5.1809

                     40                     41                     42
                      A                      A                      A
 Frequencies --   1938.8696              2647.0943              3149.0248
 Red. masses --     11.4931                 1.0393                 1.0646
 Frc consts  --     25.4556                 4.2908                 6.2203
 IR Inten    --     26.8519                 0.1156                 3.0571

                     43                     44                     45
                      A                      A                      A
 Frequencies --   3159.6597              3199.2958              3239.9329
 Red. masses --      1.0855                 1.0925                 1.1155
 Frc consts  --      6.3849                 6.5881                 6.8993
 IR Inten    --      3.2846                14.9025                 6.4304

 - Thermochemistry -
 -------------------
 Temperature   298.150 Kelvin.  Pressure   1.00000 Atm.
 Atom     1 has atomic number  6 and mass  12.00000

 Molecular mass:   190.98634 amu.
 Principal axes and moments of inertia in atomic units:
                           1         2         3
     Eigenvalues --  1368.122413514.592474005.16295
           X            0.99995   0.00959   0.00014
           Y           -0.00959   0.99954   0.02864
           Z            0.00013  -0.02864   0.99959
 This molecule is an asymmetric top.
 Rotational symmetry number  1.
 Warning -- assumption of classical behavior for rotation
           may cause significant error
 Rotational temperatures (Kelvin)      0.06331     0.02464     0.02163
 Rotational constants (GHZ):           1.31914     0.51350     0.45060
 Zero-point vibrational energy     275915.5 (Joules/Mol)
                                   65.94539 (Kcal/Mol)
 Warning -- explicit consideration of  19 degrees of freedom as
           vibrations may cause significant error
 Vibrational temperatures:     66.50   109.29   130.96   161.05   198.55
          (Kelvin)            288.20   317.07   348.58   382.80   523.81
                              571.32   593.04   669.89   714.40   733.76
                              774.66   820.35   858.42   883.76   939.59
                             1050.44  1066.37  1215.87  1268.79  1315.47
                             1392.35  1436.93  1470.98  1492.29  1589.60
                             1624.19  1701.92  1816.99  1891.57  1944.70
                             2081.12  2117.31  2419.30  2448.20  2789.60
                             3808.58  4530.74  4546.05  4603.07  4661.54

 Zero-point correction=                           0.105091 (Hartree/Particle)
 Thermal correction to Energy=                    0.116831
 Thermal correction to Enthalpy=                  0.117776
 Thermal correction to Gibbs Free Energy=         0.066391
 Sum of electronic and zero-point Energies=          -1196.705908
 Sum of electronic and thermal Energies=             -1196.694167
 Sum of electronic and thermal Enthalpies=           -1196.693223
 Sum of electronic and thermal Free Energies=        -1196.744607

                     E (Thermal)             CV                S
                      KCal/Mol        Cal/Mol-Kelvin    Cal/Mol-Kelvin
 Total                   73.313             42.419            108.148
 Electronic               0.000              0.000              0.000
 Translational            0.889              2.981             41.647
 Rotational               0.889              2.981             31.333
 Vibrational             71.535             36.457             35.168
 Vibration     1          0.595              1.979              4.973
 Vibration     2          0.599              1.965              3.993
 Vibration     3          0.602              1.956              3.638
 Vibration     4          0.607              1.940              3.235
 Vibration     5          0.614              1.915              2.831
 Vibration     6          0.638              1.839              2.130
 Vibration     7          0.647              1.810              1.956
 Vibration     8          0.658              1.776              1.786
 Vibration     9          0.672              1.735              1.622
 Vibration    10          0.738              1.546              1.105
 Vibration    11          0.764              1.476              0.973
 Vibration    12          0.776              1.444              0.919
 Vibration    13          0.823              1.326              0.750
 Vibration    14          0.852              1.258              0.667
 Vibration    15          0.865              1.228              0.634
 Vibration    16          0.893              1.165              0.569
 Vibration    17          0.926              1.096              0.504
 Vibration    18          0.954              1.039              0.455
 Vibration    19          0.974              1.002              0.426

 Optimization completed.
    -- Stationary point found.
 Normal termination of Gaussian 16 at Tue May 16 12:49:52 2023.
