 Gaussian 16, Revision A.03,
 Gaussian 16:  ES64L-G16RevA.03 25-Dec-2016

 -----------------------------
 # opt freq b3lyp/6-31g(2df,p)
 -----------------------------

 -------------------
 Title Card Required
 -------------------
 Symbolic Z-matrix:
 Charge =  0 Multiplicity = 1

 SCF Done:  E(RB3LYP) =  -3139.62836278     A.U. after   31 cycles
 SCF Done:  E(RB3LYP) =  -3139.68715765     A.U. after   19 cycles
 SCF Done:  E(RB3LYP) =  -3139.75314906     A.U. after   14 cycles
 SCF Done:  E(RB3LYP) =  -3139.78882148     A.U. after   14 cycles
 SCF Done:  E(RB3LYP) =  -3139.80373035     A.U. after   14 cycles
 SCF Done:  E(RB3LYP) =  -3139.81717472     A.U. after   15 cycles
 SCF Done:  E(RB3LYP) =  -3139.82936844     A.U. after   16 cycles
 SCF Done:  E(RB3LYP) =  -3139.84010556     A.U. after   15 cycles
 SCF Done:  E(RB3LYP) =  -3139.84335351     A.U. after   15 cycles
 SCF Done:  E(RB3LYP) =  -3139.85251393     A.U. after   14 cycles
 SCF Done:  E(RB3LYP) =  -3139.86179636     A.U. after   11 cycles
 SCF Done:  E(RB3LYP) =  -3139.86180130     A.U. after   10 cycles
 SCF Done:  E(RB3LYP) =  -3139.86180301     A.U. after    9 cycles
 SCF Done:  E(RB3LYP) =  -3139.86180312     A.U. after    9 cycles
 SCF Done:  E(RB3LYP) =  -3139.86180322     A.U. after    7 cycles
 SCF Done:  E(RB3LYP) =  -3139.86180321     A.U. after    7 cycles
 SCF Done:  E(RB3LYP) =  -3139.86180322     A.U. after    6 cycles
 SCF Done:  E(RB3LYP) =  -3139.86180320     A.U. after    7 cycles
 SCF Done:  E(RB3LYP) =  -3139.86180318     A.U. after    6 cycles
 Optimization completed.
    -- Stationary point found.
 Normal termination of Gaussian 16 at Fri May 19 02:52:13 2023.

 ----------------------------------------------------------------------
 #N Geom=AllCheck Guess=TCheck SCRF=Check GenChk RB3LYP/6-31G(2df,p) Fr
 eq
 ----------------------------------------------------------------------

 Structure from the checkpoint file:  "CdCCdCCqCSC[SH]qCrSrSSSCdS.chk"
 -------------------
 Title Card Required
 -------------------
 Charge =  0 Multiplicity = 1

                         Standard orientation:
 ---------------------------------------------------------------------
 Center     Atomic      Atomic             Coordinates (Angstroms)
 Number     Number       Type             X           Y           Z
 ---------------------------------------------------------------------
      1          6           0        3.916988    5.196405    0.610021
      2          6           0        3.247828    4.325536   -0.152901
      3          6           0        2.887882    2.986368    0.271077
      4          6           0        2.209326    2.108794   -0.483334
      5          6           0        1.844559    0.725190   -0.046596
      6          6           0        0.409284    0.337572   -0.410477
      7         16           0       -0.766009    1.418001    0.509190
      8          6           0       -2.310015    0.574819   -0.010458
      9         16           0       -3.777255    1.372707    0.741901
     10          6           0       -4.258360    2.760210   -0.339647
     11         16           0       -5.168634   -0.293432   -0.779573
     12         16           0        3.057736   -0.421441   -0.911295
     13         16           0        3.156193   -2.131361    0.233765
     14         16           0        1.700405   -3.501245   -0.429652
     15          6           0        0.414242   -3.343553    0.745151
     16         16           0       -0.961466   -4.196891    0.660296
     17          1           0        4.169816    6.189106    0.256209
     18          1           0        4.235584    4.941617    1.616415
     19          1           0        2.943480    4.613242   -1.157551
     20          1           0        3.194464    2.696973    1.275732
     21          1           0        1.899232    2.391146   -1.488360
     22          1           0        2.023150    0.595774    1.023223
     23          1           0        0.208031   -0.700891   -0.142365
     24          1           0        0.248017    0.454431   -1.486229
     25          1           0       -2.361706   -0.466471    0.311019
     26          1           0       -2.451501    0.616160   -1.088579
     27          1           0       -2.940492    2.257190    1.467434
     28          1           0       -5.152804    2.429136   -0.863567
     29          1           0       -3.443230    2.979654   -1.030139
     30          1           0       -4.438962    3.621779    0.306638
     31          1           0       -4.801158    0.043537   -2.033536
     32          1           0        0.642146   -2.631821    1.542533
 ---------------------------------------------------------------------

 SCF Done:  E(RB3LYP) =  -3139.86180318     A.U. after    1 cycles

 The electronic state is 1-A.
 Alpha  occ. eigenvalues --  -88.98672 -88.93783 -88.93542 -88.92041 -88.89992
 Alpha  occ. eigenvalues --  -88.87570 -88.78673 -10.28948 -10.26806 -10.25853
 Alpha  occ. eigenvalues --  -10.24618 -10.24327 -10.21769 -10.21683 -10.21064
 Alpha  occ. eigenvalues --  -10.20261  -8.04010  -7.99957  -7.99798  -7.98279
 Alpha  occ. eigenvalues --   -7.96288  -7.94115  -7.85511  -6.00282  -6.00254
 Alpha  occ. eigenvalues --   -5.99834  -5.96456  -5.96251  -5.96102  -5.95814
 Alpha  occ. eigenvalues --   -5.95451  -5.95429  -5.94795  -5.94366  -5.93801
 Alpha  occ. eigenvalues --   -5.92776  -5.92448  -5.91785  -5.90411  -5.90367
 Alpha  occ. eigenvalues --   -5.89652  -5.81899  -5.81476  -5.81171  -0.88026
 Alpha  occ. eigenvalues --   -0.87051  -0.85550  -0.82325  -0.80969  -0.78403
 Alpha  occ. eigenvalues --   -0.74839  -0.73898  -0.70068  -0.66266  -0.63766
 Alpha  occ. eigenvalues --   -0.63526  -0.62349  -0.59095  -0.58161  -0.57574
 Alpha  occ. eigenvalues --   -0.51225  -0.49924  -0.48949  -0.48296  -0.47952
 Alpha  occ. eigenvalues --   -0.47113  -0.45543  -0.45053  -0.43158  -0.42396
 Alpha  occ. eigenvalues --   -0.41592  -0.40940  -0.40282  -0.39987  -0.39692
 Alpha  occ. eigenvalues --   -0.38399  -0.36916  -0.36625  -0.36129  -0.34923
 Alpha  occ. eigenvalues --   -0.34566  -0.34009  -0.31396  -0.28630  -0.27501
 Alpha  occ. eigenvalues --   -0.26773  -0.25671  -0.24401  -0.24007  -0.19672
 Alpha  occ. eigenvalues --   -0.18803
 Alpha virt. eigenvalues --   -0.09603  -0.07546  -0.05497  -0.03342  -0.02200
 Alpha virt. eigenvalues --   -0.00887  -0.00015   0.01311   0.02735   0.05120
 Alpha virt. eigenvalues --    0.06213   0.06615   0.07107   0.07284   0.08568

 Mulliken charges:
               1
     1  C   -0.323889
     2  C    0.003816
     3  C   -0.044768
     4  C   -0.064509
     5  C   -0.100551
     6  C   -0.221735
     7  S   -0.158476
     8  C   -0.198475
     9  S    0.211616
    10  C   -0.391687
    11  S   -0.656407
    12  S   -0.045999
    13  S   -0.072188
    14  S    0.056823
    15  C   -0.021307
    16  S   -0.202129
    17  H    0.125950
    18  H    0.116177
    19  H    0.095253
    20  H    0.098412
    21  H    0.105833
    22  H    0.136523
    23  H    0.144428
    24  H    0.142371
    25  H    0.200827
    26  H    0.176905
    27  H    0.064689
    28  H    0.206579
    29  H    0.171051
    30  H    0.159314
    31  H    0.118262
    32  H    0.167291
 Sum of Mulliken charges =  -0.00000

 Dipole moment (field-independent basis, Debye):
    X=              5.1174    Y=              6.8796    Z=              1.0014  Tot=              8.6324
 Quadrupole moment (field-independent basis, Debye-Ang):
   XX=           -181.1393   YY=           -142.7784   ZZ=           -144.6447
   XY=            -14.9008   XZ=             -1.8990   YZ=             -3.3826

  Exact polarizability: 321.808  77.464 344.041  14.855  18.412 178.775
 Approx polarizability: 512.254 142.361 529.701  29.681  50.130 350.171

                      1                      2                      3
                      A                      A                      A
 Frequencies --      9.2383                12.2883                18.6118
 Red. masses --      9.9648                 7.9102                 5.6998
 Frc consts  --      0.0005                 0.0007                 0.0012
 IR Inten    --      2.2276                 0.0975                 2.7303

                      4                      5                      6
                      A                      A                      A
 Frequencies --     23.4275                28.8670                38.2956
 Red. masses --      5.1888                 5.5836                 9.8473
 Frc consts  --      0.0017                 0.0027                 0.0085
 IR Inten    --      1.5810                 0.4442                 1.5448

                      7                      8                      9
                      A                      A                      A
 Frequencies --     53.0925                63.1549                80.5040
 Red. masses --      4.6892                10.8612                 6.0539
 Frc consts  --      0.0078                 0.0255                 0.0231
 IR Inten    --      3.1958                 2.9039                 6.2965

                     10                     11                     12
                      A                      A                      A
 Frequencies --     90.0984               110.5869               126.1329
 Red. masses --      1.2629                 2.5938                 4.5327
 Frc consts  --      0.0060                 0.0187                 0.0425
 IR Inten    --      3.2944                 1.0229                 1.2321

                     13                     14                     15
                      A                      A                      A
 Frequencies --    145.7714               153.7034               161.6459
 Red. masses --      3.9060                 3.5900                 3.7915
 Frc consts  --      0.0489                 0.0500                 0.0584
 IR Inten    --      6.1774                 3.8615                 0.1800

                     16                     17                     18
                      A                      A                      A
 Frequencies --    164.1628               178.2672               188.7067
 Red. masses --      2.9251                 4.0442                 8.1578
 Frc consts  --      0.0464                 0.0757                 0.1712
 IR Inten    --      1.7429                 5.8064                 5.8988

                     19                     20                     21
                      A                      A                      A
 Frequencies --    206.5352               211.3837               220.3284
 Red. masses --      3.0651                 1.2838                 4.4029
 Frc consts  --      0.0770                 0.0338                 0.1259
 IR Inten    --      2.2483                12.6556                46.2304

                     22                     23                     24
                      A                      A                      A
 Frequencies --    228.4686               254.6578               274.3093
 Red. masses --      4.8078                 5.8614                 3.0151
 Frc consts  --      0.1479                 0.2240                 0.1337
 IR Inten    --      1.6024                23.3333                 0.7042

                     25                     26                     27
                      A                      A                      A
 Frequencies --    299.0269               317.1434               334.5848
 Red. masses --     18.3789                 4.6622                 5.5628
 Frc consts  --      0.9683                 0.2763                 0.3669
 IR Inten    --      8.4139                 2.1548                 0.8582

                     28                     29                     30
                      A                      A                      A
 Frequencies --    372.2956               446.4321               447.5733
 Red. masses --      2.7270                27.9781                 1.1322
 Frc consts  --      0.2227                 3.2853                 0.1336
 IR Inten    --      2.2070                12.5283                 5.4003

                     31                     32                     33
                      A                      A                      A
 Frequencies --    469.4767               495.4269               533.6753
 Red. masses --      4.1393                11.0482                 2.7488
 Frc consts  --      0.5375                 1.5977                 0.4613
 IR Inten    --      0.9590                 2.9564                 2.0691

                     34                     35                     36
                      A                      A                      A
 Frequencies --    635.3715               667.8835               690.3875
 Red. masses --      1.8448                 4.9703                 5.6272
 Frc consts  --      0.4388                 1.3063                 1.5803
 IR Inten    --      4.0646                 4.2255                23.1993

                     37                     38                     39
                      A                      A                      A
 Frequencies --    700.7981               745.9230               753.1415
 Red. masses --      3.4564                 6.6490                 8.6913
 Frc consts  --      1.0001                 2.1797                 2.9046
 IR Inten    --      8.1173                14.0519                90.2400

                     40                     41                     42
                      A                      A                      A
 Frequencies --    769.4637               824.8102               830.9366
 Red. masses --      4.1254                 1.3753                 1.4202
 Frc consts  --      1.4391                 0.5513                 0.5777
 IR Inten    --      1.0583                 1.9571                21.7228

                     43                     44                     45
                      A                      A                      A
 Frequencies --    866.6283               870.5713               900.6859
 Red. masses --      1.1974                 1.3668                 2.0508
 Frc consts  --      0.5299                 0.6103                 0.9802
 IR Inten    --     10.6854                12.1462                15.7994

                     46                     47                     48
                      A                      A                      A
 Frequencies --    951.5386               959.1569               979.5528
 Red. masses --      1.3443                 1.5980                 1.2093
 Frc consts  --      0.7171                 0.8662                 0.6836
 IR Inten    --     22.0698                 2.2740                 5.7690

                     49                     50                     51
                      A                      A                      A
 Frequencies --    993.7343              1010.1959              1037.1483
 Red. masses --      1.2072                 2.2921                 1.1803
 Frc consts  --      0.7024                 1.3782                 0.7480
 IR Inten    --      9.0330                 1.2042                59.9098

                     52                     53                     54
                      A                      A                      A
 Frequencies --   1055.3127              1059.4663              1101.3345
 Red. masses --      1.1045                 3.6267                 2.3571
 Frc consts  --      0.7248                 2.3985                 1.6845
 IR Inten    --     19.8624               142.8331                 2.4824

                     55                     56                     57
                      A                      A                      A
 Frequencies --   1109.2981              1129.6801              1145.5524
 Red. masses --      1.1072                 1.1157                 1.4084
 Frc consts  --      0.8028                 0.8389                 1.0890
 IR Inten    --      1.8925                19.5431                 1.8916

                     58                     59                     60
                      A                      A                      A
 Frequencies --   1172.6618              1202.3303              1221.7504
 Red. masses --      1.1756                 1.1732                 1.7389
 Frc consts  --      0.9525                 0.9992                 1.5293
 IR Inten    --     15.3148                28.3742                 3.5030

                     61                     62                     63
                      A                      A                      A
 Frequencies --   1248.0515              1271.4828              1295.3831
 Red. masses --      1.3066                 1.2573                 1.2464
 Frc consts  --      1.1991                 1.1976                 1.2322
 IR Inten    --     79.2946                12.7657                 3.2781

                     64                     65                     66
                      A                      A                      A
 Frequencies --   1319.2359              1331.6736              1336.0164
 Red. masses --      1.3614                 1.1572                 1.2617
 Frc consts  --      1.3959                 1.2091                 1.3269
 IR Inten    --      6.7207                 1.9670                 2.1548

                     67                     68                     69
                      A                      A                      A
 Frequencies --   1359.0123              1430.0374              1446.4446
 Red. masses --      1.3568                 1.0671                 1.0532
 Frc consts  --      1.4765                 1.2857                 1.2982
 IR Inten    --      4.9908                 0.6600                 9.3356

                     70                     71                     72
                      A                      A                      A
 Frequencies --   1458.9604              1474.7642              1476.3910
 Red. masses --      1.2432                 1.0951                 1.0493
 Frc consts  --      1.5591                 1.4033                 1.3476
 IR Inten    --      1.0079                 7.3966                 3.0305

                     73                     74                     75
                      A                      A                      A
 Frequencies --   1666.6768              1706.7445              2109.4744
 Red. masses --      4.6218                 5.1817                 1.0332
 Frc consts  --      7.5643                 8.8933                 2.7088
 IR Inten    --     19.4061                18.7275               724.9845

                     76                     77                     78
                      A                      A                      A
 Frequencies --   2646.2028              3057.4786              3057.6479
 Red. masses --      1.0387                 1.0598                 1.0284
 Frc consts  --      4.2853                 5.8373                 5.6648
 IR Inten    --     20.0091                 6.3096                12.2984

                     79                     80                     81
                      A                      A                      A
 Frequencies --   3086.4831              3088.2561              3097.0870
 Red. masses --      1.0880                 1.0846                 1.0564
 Frc consts  --      6.1069                 6.0947                 5.9701
 IR Inten    --      2.8696                 1.2475                 2.6718

                     82                     83                     84
                      A                      A                      A
 Frequencies --   3123.4031              3135.6825              3142.1453
 Red. masses --      1.1048                 1.0882                 1.0855
 Frc consts  --      6.3500                 6.3044                 6.3144
 IR Inten    --      3.6345                 0.1266                 2.8850

                     85                     86                     87
                      A                      A                      A
 Frequencies --   3148.9142              3154.0310              3158.4236
 Red. masses --      1.0701                 1.0824                 1.1054
 Frc consts  --      6.2514                 6.3443                 6.4971
 IR Inten    --     20.2184                 9.0154                 1.6516

                     88                     89                     90
                      A                      A                      A
 Frequencies --   3169.6730              3191.1209              3239.2269
 Red. masses --      1.1102                 1.1076                 1.1147
 Frc consts  --      6.5720                 6.6456                 6.8908
 IR Inten    --      1.6102                 0.6855                 7.9576

 - Thermochemistry -
 -------------------
 Temperature   298.150 Kelvin.  Pressure   1.00000 Atm.
 Atom     1 has atomic number  6 and mass  12.00000

 Molecular mass:   347.92970 amu.
 Principal axes and moments of inertia in atomic units:
                           1         2         3
     Eigenvalues --  8751.39622********************
           X            0.99932   0.03602   0.00767
           Y           -0.03601   0.99935  -0.00067
           Z           -0.00769   0.00039   0.99997
 This molecule is an asymmetric top.
 Rotational symmetry number  1.
 Warning -- assumption of classical behavior for rotation
           may cause significant error
 Rotational temperatures (Kelvin)      0.00990     0.00766     0.00454
 Rotational constants (GHZ):           0.20622     0.15966     0.09453
 Zero-point vibrational energy     601538.1 (Joules/Mol)
                                  143.77105 (Kcal/Mol)
 Warning -- explicit consideration of  33 degrees of freedom as
           vibrations may cause significant error
 Vibrational temperatures:     13.29    17.68    26.78    33.71    41.53
          (Kelvin)             55.10    76.39    90.87   115.83   129.63
                              159.11   181.48   209.73   221.14   232.57
                              236.19   256.49   271.51   297.16   304.13
                              317.00   328.72   366.40   394.67   430.23
                              456.30   481.39   535.65   642.32   643.96
                              675.47   712.81   767.84   914.16   960.94
                              993.31  1008.29  1073.22  1083.60  1107.09
                             1186.72  1195.53  1246.88  1252.56  1295.89
                             1369.05  1380.01  1409.36  1429.76  1453.45
                             1492.23  1518.36  1524.34  1584.57  1596.03
                             1625.36  1648.19  1687.20  1729.89  1757.83
                             1795.67  1829.38  1863.77  1898.09  1915.98
                             1922.23  1955.32  2057.50  2081.11  2099.12
                             2121.86  2124.20  2397.98  2455.62  3035.06
                             3807.30  4399.03  4399.27  4440.76  4443.31
                             4456.02  4493.88  4511.55  4520.85  4530.59
                             4537.95  4544.27  4560.45  4591.31  4660.53

 Zero-point correction=                           0.229114 (Hartree/Particle)
 Thermal correction to Energy=                    0.253040
 Thermal correction to Enthalpy=                  0.253984
 Thermal correction to Gibbs Free Energy=         0.167780
 Sum of electronic and zero-point Energies=          -3139.632689
 Sum of electronic and thermal Energies=             -3139.608763
 Sum of electronic and thermal Enthalpies=           -3139.607819
 Sum of electronic and thermal Free Energies=        -3139.694023

                     E (Thermal)             CV                S
                      KCal/Mol        Cal/Mol-Kelvin    Cal/Mol-Kelvin
 Total                  158.785             79.279            181.431
 Electronic               0.000              0.000              0.000
 Translational            0.889              2.981             43.435
 Rotational               0.889              2.981             35.889
 Vibrational            157.008             73.318            102.108
 Vibration     1          0.593              1.987              8.168
 Vibration     2          0.593              1.987              7.602
 Vibration     3          0.593              1.986              6.777
 Vibration     4          0.593              1.985              6.320
 Vibration     5          0.593              1.984              5.906
 Vibration     6          0.594              1.982              5.345
 Vibration     7          0.596              1.976              4.699
 Vibration     8          0.597              1.972              4.356
 Vibration     9          0.600              1.962              3.879
 Vibration    10          0.602              1.956              3.658
 Vibration    11          0.606              1.941              3.259
 Vibration    12          0.611              1.927              3.004
 Vibration    13          0.617              1.907              2.727
 Vibration    14          0.619              1.899              2.626
 Vibration    15          0.622              1.889              2.530
 Vibration    16          0.623              1.886              2.501
 Vibration    17          0.629              1.869              2.346
 Vibration    18          0.633              1.855              2.240
 Vibration    19          0.641              1.831              2.074
 Vibration    20          0.643              1.823              2.032
 Vibration    21          0.647              1.810              1.956
 Vibration    22          0.651              1.798              1.891
 Vibration    23          0.665              1.755              1.698
 Vibration    24          0.677              1.721              1.569
 Vibration    25          0.692              1.676              1.422
 Vibration    26          0.704              1.641              1.325
 Vibration    27          0.716              1.606              1.238
 Vibration    28          0.744              1.529              1.070
 Vibration    29          0.806              1.369              0.807
 Vibration    30          0.807              1.366              0.803
 Vibration    31          0.827              1.318              0.739
 Vibration    32          0.851              1.260              0.670
 Vibration    33          0.889              1.176              0.579

                           ! Non-Optimized Parameters !
 Normal termination of Gaussian 16 at Fri May 19 05:05:49 2023.
