 Gaussian 16, Revision A.03,
 Gaussian 16:  ES64L-G16RevA.03 25-Dec-2016

 -----------------------------
 # opt freq b3lyp/6-31g(2df,p)
 -----------------------------

 -------------------
 Title Card Required
 -------------------
 Symbolic Z-matrix:
 Charge =  0 Multiplicity = 1

 SCF Done:  E(RB3LYP) =  -1543.19558673     A.U. after   19 cycles
 SCF Done:  E(RB3LYP) =  -1543.25099409     A.U. after   15 cycles
 SCF Done:  E(RB3LYP) =  -1543.30521510     A.U. after   15 cycles
 SCF Done:  E(RB3LYP) =  -1543.31823637     A.U. after   15 cycles
 SCF Done:  E(RB3LYP) =  -1543.33281130     A.U. after   17 cycles
 SCF Done:  E(RB3LYP) =  -1543.33752220     A.U. after   14 cycles
 SCF Done:  E(RB3LYP) =  -1543.34143455     A.U. after   14 cycles
 SCF Done:  E(RB3LYP) =  -1543.34443406     A.U. after   14 cycles
 SCF Done:  E(RB3LYP) =  -1543.34788994     A.U. after   15 cycles
 SCF Done:  E(RB3LYP) =  -1543.35252074     A.U. after   15 cycles
 SCF Done:  E(RB3LYP) =  -1543.36712381     A.U. after   13 cycles
 SCF Done:  E(RB3LYP) =  -1543.36715370     A.U. after   12 cycles
 SCF Done:  E(RB3LYP) =  -1543.36718360     A.U. after   12 cycles
 SCF Done:  E(RB3LYP) =  -1543.36719754     A.U. after   10 cycles
 SCF Done:  E(RB3LYP) =  -1543.36720154     A.U. after   10 cycles
 SCF Done:  E(RB3LYP) =  -1543.36720382     A.U. after    9 cycles
 SCF Done:  E(RB3LYP) =  -1543.36720516     A.U. after    9 cycles
 SCF Done:  E(RB3LYP) =  -1543.36720544     A.U. after    8 cycles
 SCF Done:  E(RB3LYP) =  -1543.36720563     A.U. after    8 cycles
 Optimization completed.
    -- Stationary point found.
 Normal termination of Gaussian 16 at Tue May 16 22:10:39 2023.

 ----------------------------------------------------------------------
 #N Geom=AllCheck Guess=TCheck SCRF=Check GenChk RB3LYP/6-31G(2df,p) Fr
 eq
 ----------------------------------------------------------------------

 Structure from the checkpoint file:  "CdCC1dS2CqdCC2d[SH]CrSCdC1.chk"
 -------------------
 Title Card Required
 -------------------
 Charge =  0 Multiplicity = 1

                         Standard orientation:
 ---------------------------------------------------------------------
 Center     Atomic      Atomic             Coordinates (Angstroms)
 Number     Number       Type             X           Y           Z
 ---------------------------------------------------------------------
      1          6           0        4.531560    1.670812    0.189053
      2          6           0        3.248612    1.643933   -0.209169
      3          6           0        2.296883    0.593051    0.061435
      4         16           0        0.753845    0.799931   -0.648439
      5          6           0       -0.042042   -0.683022   -0.468877
      6          6           0       -1.472023   -0.697710   -0.361209
      7          6           0       -2.188039    0.438324   -0.147329
      8         16           0       -3.895914    0.385757   -0.349856
      9          6           0       -4.506312    0.973458    1.264453
     10         16           0        0.950951   -2.149126   -0.389934
     11          6           0        1.860107   -1.627433    1.055358
     12          6           0        2.491986   -0.434558    1.040461
     13          1           0        5.163527    2.524490   -0.024127
     14          1           0        4.987129    0.847030    0.727281
     15          1           0        2.870232    2.485179   -0.788885
     16          1           0       -1.916258   -1.689476   -0.497603
     17          1           0       -4.501210   -0.870020   -0.247744
     18          1           0       -4.125304    1.988291    1.374076
     19          1           0       -4.110727    0.336623    2.055499
     20          1           0       -5.597818    0.966400    1.249132
     21          1           0        1.840424   -2.266210    1.931844
     22          1           0        3.123506   -0.168422    1.887117
 ---------------------------------------------------------------------

 SCF Done:  E(RB3LYP) =  -1543.36720563     A.U. after    3 cycles

 The electronic state is 1-A.
 Alpha  occ. eigenvalues --  -88.96470 -88.91384 -88.87195 -10.23975 -10.22834
 Alpha  occ. eigenvalues --  -10.21158 -10.20256 -10.19421 -10.18931 -10.18851
 Alpha  occ. eigenvalues --  -10.17429 -10.17021  -8.02184  -7.97349  -7.93302
 Alpha  occ. eigenvalues --   -5.98583  -5.98379  -5.97900  -5.93684  -5.93329
 Alpha  occ. eigenvalues --   -5.93279  -5.89799  -5.89482  -5.88831  -0.86946
 Alpha  occ. eigenvalues --   -0.85526  -0.79866  -0.77818  -0.74567  -0.72404
 Alpha  occ. eigenvalues --   -0.68583  -0.63413  -0.60556  -0.57147  -0.53119
 Alpha  occ. eigenvalues --   -0.49192  -0.48635  -0.47390  -0.46515  -0.44132
 Alpha  occ. eigenvalues --   -0.43865  -0.42565  -0.42470  -0.40571  -0.39090
 Alpha  occ. eigenvalues --   -0.37481  -0.34909  -0.34052  -0.33235  -0.32236
 Alpha  occ. eigenvalues --   -0.29769  -0.27049  -0.24882  -0.22303  -0.21138
 Alpha  occ. eigenvalues --   -0.15971
 Alpha virt. eigenvalues --   -0.08065  -0.00762   0.00164   0.02043   0.03953
 Alpha virt. eigenvalues --    0.05877   0.05966   0.06810   0.09331   0.10135
 Alpha virt. eigenvalues --    0.10794   0.11855   0.12205   0.12624   0.13187

 Mulliken charges:
               1
     1  C   -0.357289
     2  C   -0.052147
     3  C    0.146733
     4  S    0.026131
     5  C    0.100238
     6  C   -0.150790
     7  C   -0.224706
     8  S    0.096026
     9  C   -0.375161
    10  S   -0.177509
    11  C   -0.148332
    12  C   -0.115524
    13  H    0.112015
    14  H    0.106273
    15  H    0.097485
    16  H    0.086462
    17  H    0.096970
    18  H    0.181280
    19  H    0.169988
    20  H    0.152984
    21  H    0.115378
    22  H    0.113495
 Sum of Mulliken charges =  -0.00000

 Dipole moment (field-independent basis, Debye):
    X=             -4.6767    Y=              0.4456    Z=              2.1826  Tot=              5.1801
 Quadrupole moment (field-independent basis, Debye-Ang):
   XX=            -67.1827   YY=            -93.3331   ZZ=            -90.7940
   XY=              1.9703   XZ=             -1.8927   YZ=             -1.4260

  Exact polarizability: 387.242  28.256 156.073  19.240  -3.223 104.836
 Approx polarizability: 771.385  85.669 295.437  84.707  -3.173 192.824

                      1                      2                      3
                      A                      A                      A
 Frequencies --     43.1324                49.6516                71.0859
 Red. masses --      5.3927                 3.7310                 3.8676
 Frc consts  --      0.0059                 0.0054                 0.0115
 IR Inten    --      1.4375                 1.5273                 2.7108

                      4                      5                      6
                      A                      A                      A
 Frequencies --    101.9967               109.4684               157.3784
 Red. masses --      4.6546                 4.5724                 1.4314
 Frc consts  --      0.0285                 0.0323                 0.0209
 IR Inten    --      0.9253                 2.6145                 0.1108

                      7                      8                      9
                      A                      A                      A
 Frequencies --    179.1314               191.8283               203.0113
 Red. masses --      1.9238                 3.5572                 3.1128
 Frc consts  --      0.0364                 0.0771                 0.0756
 IR Inten    --      3.4924                10.1632                 2.3831

                     10                     11                     12
                      A                      A                      A
 Frequencies --    238.3361               266.9922               299.6233
 Red. masses --      6.6477                 3.5813                 4.1573
 Frc consts  --      0.2225                 0.1504                 0.2199
 IR Inten    --     13.6059                 3.7319                15.5374

                     13                     14                     15
                      A                      A                      A
 Frequencies --    329.8134               362.6505               414.2774
 Red. masses --      5.3448                 5.7365                 9.3544
 Frc consts  --      0.3425                 0.4445                 0.9459
 IR Inten    --     10.9404                 7.0697                 0.1887

                     16                     17                     18
                      A                      A                      A
 Frequencies --    440.9014               476.9580               497.7697
 Red. masses --      4.3118                 3.8162                 4.0041
 Frc consts  --      0.4938                 0.5115                 0.5845
 IR Inten    --     23.8508                 5.4450                10.5572

                     19                     20                     21
                      A                      A                      A
 Frequencies --    621.7304               643.5141               657.5477
 Red. masses --      7.8570                 3.3812                 3.7027
 Frc consts  --      1.7894                 0.8250                 0.9433
 IR Inten    --     32.0165                17.3565                64.1034

                     22                     23                     24
                      A                      A                      A
 Frequencies --    672.7919               678.8124               695.5925
 Red. masses --      1.8554                 3.0534                 6.1161
 Frc consts  --      0.4948                 0.8289                 1.7435
 IR Inten    --      8.4751                 2.3346                46.8326

                     25                     26                     27
                      A                      A                      A
 Frequencies --    741.6951               776.7294               786.7398
 Red. masses --      2.0369                 1.2676                 2.7164
 Frc consts  --      0.6602                 0.4506                 0.9906
 IR Inten    --     45.9775                 6.2949                 8.8198

                     28                     29                     30
                      A                      A                      A
 Frequencies --    838.9598               887.8955               907.5862
 Red. masses --      1.3442                 1.3770                 1.4303
 Frc consts  --      0.5574                 0.6396                 0.6941
 IR Inten    --     76.3276                32.1022                 7.4063

                     31                     32                     33
                      A                      A                      A
 Frequencies --    912.8555               979.4586               983.1112
 Red. masses --      1.4186                 3.2751                 1.6018
 Frc consts  --      0.6965                 1.8512                 0.9122
 IR Inten    --      7.0844               135.0983                 1.5825

                     34                     35                     36
                      A                      A                      A
 Frequencies --   1016.4916              1041.3665              1076.6947
 Red. masses --      1.1500                 1.4690                 1.2276
 Frc consts  --      0.7001                 0.9386                 0.8385
 IR Inten    --     11.8247                 8.0460               142.8614

                     37                     38                     39
                      A                      A                      A
 Frequencies --   1087.3423              1188.2514              1234.9235
 Red. masses --      2.4806                 1.3986                 4.3577
 Frc consts  --      1.7280                 1.1635                 3.9155
 IR Inten    --      1.9739                27.2062                10.9053

                     40                     41                     42
                      A                      A                      A
 Frequencies --   1276.3736              1313.5190              1335.6128
 Red. masses --      1.7142                 1.4584                 1.3396
 Frc consts  --      1.6454                 1.4825                 1.4080
 IR Inten    --     23.8080                 5.4048                 8.0442

                     43                     44                     45
                      A                      A                      A
 Frequencies --   1338.1466              1372.4097              1452.7021
 Red. masses --      1.1709                 2.4912                 1.0520
 Frc consts  --      1.2354                 2.7646                 1.3081
 IR Inten    --      4.0786                 3.2028                 9.5478

                     46                     47                     48
                      A                      A                      A
 Frequencies --   1457.0942              1470.4108              1515.0361
 Red. masses --      1.2745                 1.0495                 6.7286
 Frc consts  --      1.5942                 1.3369                 9.0995
 IR Inten    --      2.7754                 5.7726                32.2806

                     49                     50                     51
                      A                      A                      A
 Frequencies --   1579.5423              1649.3941              2224.7129
 Red. masses --      6.5991                 3.8703                 1.0382
 Frc consts  --      9.7006                 6.2035                 3.0275
 IR Inten    --     33.2840                60.1449               516.3567

                     52                     53                     54
                      A                      A                      A
 Frequencies --   3046.5759              3062.7979              3131.3429
 Red. masses --      1.0868                 1.0283                 1.0855
 Frc consts  --      5.9435                 5.6834                 6.2708
 IR Inten    --     30.1659                15.7211                 9.1630

                     55                     56                     57
                      A                      A                      A
 Frequencies --   3133.4137              3159.0144              3168.5130
 Red. masses --      1.0839                 1.0616                 1.1069
 Frc consts  --      6.2703                 6.2417                 6.5471
 IR Inten    --     20.5567                 3.1018                 2.9320

                     58                     59                     60
                      A                      A                      A
 Frequencies --   3181.5426              3182.7740              3243.5990
 Red. masses --      1.1064                 1.0939                 1.1151
 Frc consts  --      6.5983                 6.5286                 6.9123
 IR Inten    --      0.9487                10.7313                 9.4610

 - Thermochemistry -
 -------------------
 Temperature   298.150 Kelvin.  Pressure   1.00000 Atm.
 Atom     1 has atomic number  6 and mass  12.00000

 Molecular mass:   213.99447 amu.
 Principal axes and moments of inertia in atomic units:
                           1         2         3
     Eigenvalues --  1495.329535945.423766801.78423
           X            0.99994   0.00933  -0.00563
           Y           -0.00934   0.99996  -0.00136
           Z            0.00562   0.00141   0.99998
 This molecule is an asymmetric top.
 Rotational symmetry number  1.
 Warning -- assumption of classical behavior for rotation
           may cause significant error
 Rotational temperatures (Kelvin)      0.05792     0.01457     0.01273
 Rotational constants (GHZ):           1.20692     0.30355     0.26533
 Zero-point vibrational energy     413660.4 (Joules/Mol)
                                   98.86722 (Kcal/Mol)
 Warning -- explicit consideration of  18 degrees of freedom as
           vibrations may cause significant error
 Vibrational temperatures:     62.06    71.44   102.28   146.75   157.50
          (Kelvin)            226.43   257.73   276.00   292.09   342.91
                              384.14   431.09   474.53   521.77   596.05
                              634.36   686.24   716.18   894.53   925.87
                              946.06   968.00   976.66  1000.80  1067.13
                             1117.54  1131.94  1207.08  1277.48  1305.81
                             1313.40  1409.22  1414.48  1462.50  1498.29
                             1549.12  1564.44  1709.63  1776.78  1836.42
                             1889.86  1921.65  1925.29  1974.59  2090.11
                             2096.43  2115.59  2179.80  2272.61  2373.11
                             3200.87  4383.34  4406.68  4505.30  4508.28
                             4545.12  4558.78  4577.53  4579.30  4666.82

 Zero-point correction=                           0.157555 (Hartree/Particle)
 Thermal correction to Energy=                    0.171399
 Thermal correction to Enthalpy=                  0.172343
 Thermal correction to Gibbs Free Energy=         0.115804
 Sum of electronic and zero-point Energies=          -1543.209651
 Sum of electronic and thermal Energies=             -1543.195807
 Sum of electronic and thermal Enthalpies=           -1543.194863
 Sum of electronic and thermal Free Energies=        -1543.251402

                     E (Thermal)             CV                S
                      KCal/Mol        Cal/Mol-Kelvin    Cal/Mol-Kelvin
 Total                  107.554             50.172            118.996
 Electronic               0.000              0.000              0.000
 Translational            0.889              2.981             41.986
 Rotational               0.889              2.981             32.469
 Vibrational            105.777             44.211             44.541
 Vibration     1          0.595              1.980              5.110
 Vibration     2          0.595              1.978              4.831
 Vibration     3          0.598              1.968              4.123
 Vibration     4          0.604              1.948              3.416
 Vibration     5          0.606              1.942              3.278
 Vibration     6          0.621              1.894              2.581
 Vibration     7          0.629              1.868              2.337
 Vibration     8          0.634              1.851              2.210
 Vibration     9          0.639              1.836              2.106
 Vibration    10          0.656              1.782              1.815
 Vibration    11          0.672              1.734              1.616
 Vibration    12          0.692              1.674              1.419
 Vibration    13          0.713              1.616              1.261
 Vibration    14          0.737              1.549              1.111
 Vibration    15          0.778              1.439              0.912
 Vibration    16          0.801              1.381              0.824
 Vibration    17          0.834              1.301              0.718
 Vibration    18          0.853              1.255              0.664

                           ! Non-Optimized Parameters !
 Normal termination of Gaussian 16 at Tue May 16 22:59:27 2023.
