 Gaussian 16, Revision A.03,
 Gaussian 16:  ES64L-G16RevA.03 25-Dec-2016

 -----------------------------
 # opt freq b3lyp/6-31g(2df,p)
 -----------------------------

 -------------------
 Title Card Required
 -------------------
 Symbolic Z-matrix:
 Charge =  0 Multiplicity = 1

 SCF Done:  E(RB3LYP) =  -705.158551942     A.U. after   17 cycles
 SCF Done:  E(RB3LYP) =  -705.230682981     A.U. after   15 cycles
 SCF Done:  E(RB3LYP) =  -705.298329309     A.U. after   14 cycles
 SCF Done:  E(RB3LYP) =  -705.348757044     A.U. after   13 cycles
 SCF Done:  E(RB3LYP) =  -705.380025851     A.U. after   13 cycles
 SCF Done:  E(RB3LYP) =  -705.399025620     A.U. after   13 cycles
 SCF Done:  E(RB3LYP) =  -705.419613980     A.U. after   13 cycles
 SCF Done:  E(RB3LYP) =  -705.439982915     A.U. after   13 cycles
 SCF Done:  E(RB3LYP) =  -705.450645005     A.U. after   12 cycles
 SCF Done:  E(RB3LYP) =  -705.459947576     A.U. after   12 cycles
 SCF Done:  E(RB3LYP) =  -705.475386483     A.U. after   12 cycles
 SCF Done:  E(RB3LYP) =  -705.476370548     A.U. after   12 cycles
 SCF Done:  E(RB3LYP) =  -705.476777996     A.U. after   12 cycles
 SCF Done:  E(RB3LYP) =  -705.476993064     A.U. after   11 cycles
 SCF Done:  E(RB3LYP) =  -705.477037541     A.U. after   10 cycles
 SCF Done:  E(RB3LYP) =  -705.477049466     A.U. after    9 cycles
 SCF Done:  E(RB3LYP) =  -705.477052749     A.U. after    8 cycles
 SCF Done:  E(RB3LYP) =  -705.477054025     A.U. after    7 cycles
 SCF Done:  E(RB3LYP) =  -705.477054491     A.U. after    7 cycles
 Optimization completed.
    -- Stationary point found.
 Normal termination of Gaussian 16 at Fri May 19 16:25:34 2023.

 ----------------------------------------------------------------------
 #N Geom=AllCheck Guess=TCheck SCRF=Check GenChk RB3LYP/6-31G(2df,p) Fr
 eq
 ----------------------------------------------------------------------

 Structure from the checkpoint file:  "CdCC1dCCdCc2ncnn2CdCCdCCdC1.chk"
 -------------------
 Title Card Required
 -------------------
 Charge =  0 Multiplicity = 1

                         Standard orientation:
 ---------------------------------------------------------------------
 Center     Atomic      Atomic             Coordinates (Angstroms)
 Number     Number       Type             X           Y           Z
 ---------------------------------------------------------------------
      1          6           0        4.413440   -2.126593    0.581267
      2          6           0        3.948011   -0.904810    0.306220
      3          6           0        2.601493   -0.581487   -0.197860
      4          6           0        1.523252   -1.334539    0.129373
      5          6           0        0.185040   -1.070822   -0.331840
      6          6           0       -0.950439   -1.579200    0.183482
      7          6           0       -2.285876   -1.043657   -0.058602
      8          7           0       -3.387241   -1.744590   -0.284456
      9          6           0       -4.371166   -0.810260   -0.260009
     10          7           0       -3.976755    0.425264   -0.010345
     11          7           0       -2.626849    0.291502    0.096262
     12          6           0       -1.843410    1.335463    0.637314
     13          6           0       -0.697080    1.727606    0.070214
     14          6           0        0.350220    2.494199    0.713357
     15          6           0        1.624745    2.505271    0.288058
     16          6           0        2.180152    1.852199   -0.920703
     17          6           0        2.567578    0.586193   -1.126721
     18          1           0        5.415040   -2.272563    0.970204
     19          1           0        3.818266   -3.019586    0.419884
     20          1           0        4.612601   -0.051674    0.431313
     21          1           0        1.656561   -2.137975    0.850009
     22          1           0        0.111310   -0.350559   -1.133039
     23          1           0       -0.909465   -2.389519    0.908039
     24          1           0       -5.411295   -1.045607   -0.432192
     25          1           0       -2.195164    1.708525    1.594310
     26          1           0       -0.478193    1.379739   -0.929174
     27          1           0        0.097340    3.031916    1.624346
     28          1           0        2.337644    3.116683    0.841143
     29          1           0        2.371623    2.544233   -1.743816
     30          1           0        3.033880    0.383784   -2.092561
 ---------------------------------------------------------------------

 SCF Done:  E(RB3LYP) =  -705.477054491     A.U. after    1 cycles

 The electronic state is 1-A.
 Alpha  occ. eigenvalues --  -14.41505 -14.34563 -14.31323 -10.25360 -10.23258
 Alpha  occ. eigenvalues --  -10.22445 -10.21208 -10.20777 -10.20624 -10.20553
 Alpha  occ. eigenvalues --  -10.20463 -10.20338 -10.20105 -10.20007 -10.19971
 Alpha  occ. eigenvalues --  -10.19813 -10.19109  -1.06838  -0.90261  -0.85769
 Alpha  occ. eigenvalues --   -0.84240  -0.82385  -0.78854  -0.77752  -0.74791
 Alpha  occ. eigenvalues --   -0.71516  -0.67586  -0.63716  -0.61556  -0.61073
 Alpha  occ. eigenvalues --   -0.58989  -0.55984  -0.55029  -0.52302  -0.51510
 Alpha  occ. eigenvalues --   -0.50157  -0.48111  -0.47005  -0.45972  -0.45382
 Alpha  occ. eigenvalues --   -0.44696  -0.44242  -0.42143  -0.41104  -0.40388
 Alpha  occ. eigenvalues --   -0.38503  -0.37949  -0.36225  -0.34462  -0.34289
 Alpha  occ. eigenvalues --   -0.32872  -0.31974  -0.29742  -0.28888  -0.27728
 Alpha  occ. eigenvalues --   -0.27097  -0.26324  -0.23179  -0.21604
 Alpha virt. eigenvalues --   -0.06408  -0.04456  -0.01000   0.00721   0.03362
 Alpha virt. eigenvalues --    0.05232   0.06233   0.08468   0.09368   0.10801
 Alpha virt. eigenvalues --    0.11896   0.12777   0.13267   0.14191   0.14871

 Mulliken charges:
               1
     1  C   -0.321944
     2  C   -0.051118
     3  C    0.219541
     4  C   -0.163464
     5  C   -0.058861
     6  C   -0.214285
     7  C    0.336428
     8  N   -0.325647
     9  C    0.028815
    10  N   -0.243685
    11  N   -0.041701
    12  C   -0.012625
    13  C   -0.128100
    14  C   -0.045941
    15  C   -0.136298
    16  C   -0.099774
    17  C   -0.186332
    18  H    0.119709
    19  H    0.115178
    20  H    0.097607
    21  H    0.095114
    22  H    0.098814
    23  H    0.116190
    24  H    0.127258
    25  H    0.127022
    26  H    0.116595
    27  H    0.098275
    28  H    0.112038
    29  H    0.110400
    30  H    0.110793
 Sum of Mulliken charges =   0.00000

 Dipole moment (field-independent basis, Debye):
    X=              3.9413    Y=              1.3766    Z=              0.7551  Tot=              4.2425
 Quadrupole moment (field-independent basis, Debye-Ang):
   XX=           -100.9529   YY=            -97.8585   ZZ=            -95.3156
   XY=             -0.4698   XZ=             -1.8847   YZ=             -1.1584

  Exact polarizability: 297.393   8.122 167.705  -3.857  -1.980 100.663
 Approx polarizability: 482.074  32.293 281.422 -23.211  -5.595 168.664

                      1                      2                      3
                      A                      A                      A
 Frequencies --     48.1043                72.6840                91.7384
 Red. masses --      4.9611                 4.6979                 2.8679
 Frc consts  --      0.0068                 0.0146                 0.0142
 IR Inten    --      0.0098                 0.6028                 0.0716

                      4                      5                      6
                      A                      A                      A
 Frequencies --    106.4303               127.5471               143.6154
 Red. masses --      5.4677                 3.9927                 2.5511
 Frc consts  --      0.0365                 0.0383                 0.0310
 IR Inten    --      0.2525                 0.2102                 0.9910

                      7                      8                      9
                      A                      A                      A
 Frequencies --    162.7843               192.9435               211.1088
 Red. masses --      3.4970                 3.2489                 3.0342
 Frc consts  --      0.0546                 0.0713                 0.0797
 IR Inten    --      0.1469                 0.1061                 0.4343

                     10                     11                     12
                      A                      A                      A
 Frequencies --    241.5384               296.6157               321.1326
 Red. masses --      4.3926                 3.3075                 2.8324
 Frc consts  --      0.1510                 0.1715                 0.1721
 IR Inten    --      0.4538                 0.3648                 0.1409

                     13                     14                     15
                      A                      A                      A
 Frequencies --    336.4177               362.7573               374.8480
 Red. masses --      3.3315                 3.2193                 3.5075
 Frc consts  --      0.2221                 0.2496                 0.2904
 IR Inten    --      1.0333                 2.5291                 2.5907

                     16                     17                     18
                      A                      A                      A
 Frequencies --    396.3920               423.6338               472.1421
 Red. masses --      3.3920                 3.9319                 3.4144
 Frc consts  --      0.3140                 0.4157                 0.4484
 IR Inten    --      1.1638                 3.2271                 8.5578

                     19                     20                     21
                      A                      A                      A
 Frequencies --    516.0862               527.9183               578.4541
 Red. masses --      3.3517                 3.3604                 3.0547
 Frc consts  --      0.5260                 0.5518                 0.6022
 IR Inten    --      5.1385                 3.8820                 3.1962

                     22                     23                     24
                      A                      A                      A
 Frequencies --    644.7301               678.6177               681.9031
 Red. masses --      2.4489                 4.1102                 2.6460
 Frc consts  --      0.5998                 1.1152                 0.7249
 IR Inten    --     10.0937                29.1002                 2.5426

                     25                     26                     27
                      A                      A                      A
 Frequencies --    703.6525               725.6415               760.4645
 Red. masses --      3.0856                 2.6863                 2.1912
 Frc consts  --      0.9001                 0.8334                 0.7466
 IR Inten    --      8.7770                11.9809                24.1157

                     28                     29                     30
                      A                      A                      A
 Frequencies --    784.8096               819.8467               825.7373
 Red. masses --      2.9126                 3.5650                 2.3231
 Frc consts  --      1.0570                 1.4118                 0.9333
 IR Inten    --     17.1089                 5.1682                 1.7669

                     31                     32                     33
                      A                      A                      A
 Frequencies --    859.7652               868.5133               884.5395
 Red. masses --      2.2292                 2.8824                 2.6258
 Frc consts  --      0.9709                 1.2810                 1.2104
 IR Inten    --      6.3207                 1.9263                19.6006

                     34                     35                     36
                      A                      A                      A
 Frequencies --    912.6523               936.8976               948.4757
 Red. masses --      1.3948                 1.5439                 1.3808
 Frc consts  --      0.6845                 0.7985                 0.7319
 IR Inten    --      5.1856                 7.5501                29.2919

                     37                     38                     39
                      A                      A                      A
 Frequencies --    961.6540               980.1997               985.0717
 Red. masses --      2.0842                 5.0319                 1.8765
 Frc consts  --      1.1356                 2.8485                 1.0728
 IR Inten    --      1.2839                 2.3540                12.3090

                     40                     41                     42
                      A                      A                      A
 Frequencies --   1004.2888              1011.2695              1034.4635
 Red. masses --      1.2522                 1.1781                 1.2066
 Frc consts  --      0.7441                 0.7098                 0.7607
 IR Inten    --     20.6136                19.3322                10.9947

                     43                     44                     45
                      A                      A                      A
 Frequencies --   1042.7314              1059.1790              1114.3767
 Red. masses --      1.5243                 1.1548                 3.2088
 Frc consts  --      0.9765                 0.7633                 2.3478
 IR Inten    --      3.1831                24.8554                24.8332

                     46                     47                     48
                      A                      A                      A
 Frequencies --   1136.3968              1153.7483              1190.8094
 Red. masses --      2.4092                 2.3416                 2.4970
 Frc consts  --      1.8331                 1.8365                 2.0862
 IR Inten    --      3.8532                 2.9156                10.1501

                     49                     50                     51
                      A                      A                      A
 Frequencies --   1215.2277              1235.4300              1257.3022
 Red. masses --      2.3009                 1.7578                 1.9094
 Frc consts  --      2.0020                 1.5807                 1.7784
 IR Inten    --     13.4124                13.0266                20.5425

                     52                     53                     54
                      A                      A                      A
 Frequencies --   1263.1000              1276.0325              1302.7701
 Red. masses --      1.2531                 1.2386                 1.4576
 Frc consts  --      1.1779                 1.1882                 1.4575
 IR Inten    --      2.3071                 5.5038                 5.0648

                     55                     56                     57
                      A                      A                      A
 Frequencies --   1311.1113              1321.3569              1323.3012
 Red. masses --      2.4764                 1.7883                 1.3431
 Frc consts  --      2.5081                 1.8396                 1.3858
 IR Inten    --     20.3738                15.3423                 7.3343

                     58                     59                     60
                      A                      A                      A
 Frequencies --   1328.7033              1355.1941              1386.2980
 Red. masses --      1.3949                 1.4400                 2.9822
 Frc consts  --      1.4509                 1.5582                 3.3767
 IR Inten    --      6.0189                10.5873                50.1583

                     61                     62                     63
                      A                      A                      A
 Frequencies --   1407.6089              1438.3334              1451.7705
 Red. masses --      1.4740                 1.6639                 1.4006
 Frc consts  --      1.7208                 2.0281                 1.7392
 IR Inten    --      7.1654                 1.0321                 3.9144

                     64                     65                     66
                      A                      A                      A
 Frequencies --   1452.6024              1539.1683              1629.8360
 Red. masses --      3.8325                 6.1815                 6.7196
 Frc consts  --      4.7646                 8.6281                10.5168
 IR Inten    --     24.5719                53.4483                 0.5372

                     67                     68                     69
                      A                      A                      A
 Frequencies --   1656.6021              1671.2363              1691.6224
 Red. masses --      6.8994                 4.9179                 5.4255
 Frc consts  --     11.1557                 8.0930                 9.1474
 IR Inten    --      7.1869                 8.4467                 9.7190

                     70                     71                     72
                      A                      A                      A
 Frequencies --   1699.2240              1716.0316              3088.6546
 Red. masses --      7.9067                 6.5313                 1.0802
 Frc consts  --     13.4507                11.3319                 6.0715
 IR Inten    --      5.1740                 9.7277                 2.9985

                     73                     74                     75
                      A                      A                      A
 Frequencies --   3112.1683              3123.1917              3140.8483
 Red. masses --      1.0899                 1.0842                 1.0782
 Frc consts  --      6.2195                 6.2307                 6.2670
 IR Inten    --     30.1760                 5.5636                16.0285

                     76                     77                     78
                      A                      A                      A
 Frequencies --   3151.9150              3152.8826              3157.3683
 Red. masses --      1.0861                 1.0742                 1.0848
 Frc consts  --      6.3570                 6.2912                 6.3715
 IR Inten    --      3.8034                 0.7946                17.9871

                     79                     80                     81
                      A                      A                      A
 Frequencies --   3158.7304              3175.6139              3215.3447
 Red. masses --      1.0919                 1.0908                 1.0890
 Frc consts  --      6.4190                 6.4809                 6.6332
 IR Inten    --     15.8826                11.5690                 4.9292

                     82                     83                     84
                      A                      A                      A
 Frequencies --   3236.0851              3245.8052              3254.2216
 Red. masses --      1.1150                 1.0839                 1.0966
 Frc consts  --      6.8799                 6.7279                 6.8422
 IR Inten    --     10.1810                11.2963                11.7099

 - Thermochemistry -
 -------------------
 Temperature   298.150 Kelvin.  Pressure   1.00000 Atm.
 Atom     1 has atomic number  6 and mass  12.00000

 Molecular mass:   223.11095 amu.
 Principal axes and moments of inertia in atomic units:
                           1         2         3
     Eigenvalues --  2054.187816131.444387716.07218
           X            0.99997  -0.00817   0.00023
           Y            0.00817   0.99995  -0.00645
           Z           -0.00018   0.00645   0.99998
 This molecule is an asymmetric top.
 Rotational symmetry number  1.
 Warning -- assumption of classical behavior for rotation
           may cause significant error
 Rotational temperatures (Kelvin)      0.04216     0.01413     0.01123
 Rotational constants (GHZ):           0.87857     0.29434     0.23389
 Zero-point vibrational energy     627190.2 (Joules/Mol)
                                  149.90207 (Kcal/Mol)
 Warning -- explicit consideration of  21 degrees of freedom as
           vibrations may cause significant error
 Vibrational temperatures:     69.21   104.58   131.99   153.13   183.51
          (Kelvin)            206.63   234.21   277.60   303.74   347.52
                              426.76   462.04   484.03   521.93   539.32
                              570.32   609.51   679.31   742.53   759.56
                              832.27   927.62   976.38   981.11  1012.40
                             1044.04  1094.14  1129.17  1179.58  1188.05
                             1237.01  1249.60  1272.66  1313.10  1347.99
                             1364.64  1383.61  1410.29  1417.30  1444.95
                             1454.99  1488.36  1500.26  1523.92  1603.34
                             1635.02  1659.99  1713.31  1748.44  1777.51
                             1808.98  1817.32  1835.93  1874.40  1886.40
                             1901.14  1903.94  1911.71  1949.82  1994.57
                             2025.24  2069.44  2088.77  2089.97  2214.52
                             2344.97  2383.48  2404.54  2433.87  2444.80
                             2468.99  4443.89  4477.72  4493.58  4518.98
                             4534.90  4536.29  4542.75  4544.71  4569.00
                             4626.16  4656.00  4669.99  4682.10

 Zero-point correction=                           0.238884 (Hartree/Particle)
 Thermal correction to Energy=                    0.253486
 Thermal correction to Enthalpy=                  0.254430
 Thermal correction to Gibbs Free Energy=         0.197245
 Sum of electronic and zero-point Energies=           -705.238170
 Sum of electronic and thermal Energies=              -705.223568
 Sum of electronic and thermal Enthalpies=            -705.222624
 Sum of electronic and thermal Free Energies=         -705.279809

                     E (Thermal)             CV                S
                      KCal/Mol        Cal/Mol-Kelvin    Cal/Mol-Kelvin
 Total                  159.065             56.947            120.356
 Electronic               0.000              0.000              0.000
 Translational            0.889              2.981             42.110
 Rotational               0.889              2.981             32.941
 Vibrational            157.288             50.986             45.305
 Vibration     1          0.595              1.978              4.894
 Vibration     2          0.599              1.967              4.079
 Vibration     3          0.602              1.955              3.623
 Vibration     4          0.605              1.944              3.333
 Vibration     5          0.611              1.926              2.983
 Vibration     6          0.616              1.910              2.755
 Vibration     7          0.623              1.888              2.517
 Vibration     8          0.635              1.850              2.199
 Vibration     9          0.643              1.824              2.034
 Vibration    10          0.658              1.777              1.792
 Vibration    11          0.690              1.680              1.436
 Vibration    12          0.707              1.633              1.304
 Vibration    13          0.717              1.603              1.229
 Vibration    14          0.737              1.549              1.110
 Vibration    15          0.746              1.524              1.060
 Vibration    16          0.763              1.478              0.976
 Vibration    17          0.786              1.419              0.880
 Vibration    18          0.829              1.312              0.732
 Vibration    19          0.871              1.214              0.619
 Vibration    20          0.883              1.188              0.592
 Vibration    21          0.935              1.078              0.488

                           ! Non-Optimized Parameters !
 Normal termination of Gaussian 16 at Fri May 19 19:11:58 2023.
