 Gaussian 16, Revision A.03,
 Gaussian 16:  ES64L-G16RevA.03 25-Dec-2016

 -----------------------------
 # opt freq b3lyp/6-31g(2df,p)
 -----------------------------

 -------------------
 Title Card Required
 -------------------
 Symbolic Z-matrix:
 Charge =  0 Multiplicity = 1

 SCF Done:  E(RB3LYP) =  -1544.50601724     A.U. after   19 cycles
 SCF Done:  E(RB3LYP) =  -1544.55000376     A.U. after   14 cycles
 SCF Done:  E(RB3LYP) =  -1544.58457389     A.U. after   15 cycles
 SCF Done:  E(RB3LYP) =  -1544.60001748     A.U. after   14 cycles
 SCF Done:  E(RB3LYP) =  -1544.60990575     A.U. after   15 cycles
 SCF Done:  E(RB3LYP) =  -1544.61730464     A.U. after   17 cycles
 SCF Done:  E(RB3LYP) =  -1544.62465662     A.U. after   17 cycles
 SCF Done:  E(RB3LYP) =  -1544.63040774     A.U. after   14 cycles
 SCF Done:  E(RB3LYP) =  -1544.63328312     A.U. after   13 cycles
 SCF Done:  E(RB3LYP) =  -1544.63548648     A.U. after   13 cycles
 SCF Done:  E(RB3LYP) =  -1544.64004216     A.U. after   11 cycles
 SCF Done:  E(RB3LYP) =  -1544.64009608     A.U. after   11 cycles
 SCF Done:  E(RB3LYP) =  -1544.64020395     A.U. after   11 cycles
 SCF Done:  E(RB3LYP) =  -1544.64026464     A.U. after   11 cycles
 SCF Done:  E(RB3LYP) =  -1544.64027118     A.U. after   10 cycles
 SCF Done:  E(RB3LYP) =  -1544.64027071     A.U. after    9 cycles
 SCF Done:  E(RB3LYP) =  -1544.64027297     A.U. after    9 cycles
 SCF Done:  E(RB3LYP) =  -1544.64027292     A.U. after    8 cycles
 SCF Done:  E(RB3LYP) =  -1544.64027326     A.U. after    8 cycles
 Optimization completed.
    -- Stationary point found.
 Normal termination of Gaussian 16 at Wed May 17 14:56:13 2023.

 ----------------------------------------------------------------------
 #N Geom=AllCheck Guess=TCheck SCRF=Check GenChk RB3LYP/6-31G(2df,p) Fr
 eq
 ----------------------------------------------------------------------

 Structure from the checkpoint file:  "CdCCqdCrSC1dCCdCqCr[SH]1S.chk"
 -------------------
 Title Card Required
 -------------------
 Charge =  0 Multiplicity = 1

                         Standard orientation:
 ---------------------------------------------------------------------
 Center     Atomic      Atomic             Coordinates (Angstroms)
 Number     Number       Type             X           Y           Z
 ---------------------------------------------------------------------
      1          6           0        4.811672   -1.112413   -0.324975
      2          6           0        3.672889   -0.828524    0.308743
      3          6           0        2.543866   -0.107886   -0.301870
      4          6           0        2.137111   -0.268731   -1.566339
      5         16           0        1.778315    1.050911    0.840300
      6          6           0        0.148349    1.193297    0.236653
      7          6           0       -0.544447    2.333231    0.038258
      8          6           0       -1.936523    2.107653   -0.277471
      9          6           0       -2.379840    0.832595   -0.263068
     10          6           0       -3.745844    0.335387   -0.579979
     11         16           0       -1.070173   -0.265366    0.327543
     12         16           0       -2.533271   -2.390222    0.239621
     13          1           0        5.603583   -1.669167    0.163592
     14          1           0        4.991584   -0.793882   -1.346418
     15          1           0        3.548813   -1.114614    1.350799
     16          1           0        2.590562   -1.028796   -2.192407
     17          1           0        1.351209    0.337330   -2.001816
     18          1           0       -0.122169    3.329439    0.111645
     19          1           0       -2.608419    2.923064   -0.522477
     20          1           0       -4.390130    1.194956   -0.787832
     21          1           0       -4.162387   -0.241881    0.250337
     22          1           0       -3.750526   -0.324760   -1.453140
     23          1           0       -0.505417   -0.883716   -0.722212
     24          1           0       -1.588049   -2.960792    1.010799
 ---------------------------------------------------------------------

 SCF Done:  E(RB3LYP) =  -1544.64027326     A.U. after    1 cycles

 The electronic state is 1-A.
 Alpha  occ. eigenvalues --  -88.98439 -88.90631 -88.79275 -10.24980 -10.23966
 Alpha  occ. eigenvalues --  -10.23934 -10.22366 -10.22109 -10.20952 -10.20050
 Alpha  occ. eigenvalues --  -10.20027 -10.19759  -8.03722  -7.96759  -7.86153
 Alpha  occ. eigenvalues --   -6.00006  -5.99951  -5.99601  -5.93236  -5.92869
 Alpha  occ. eigenvalues --   -5.92371  -5.82516  -5.82150  -5.81798  -0.90383
 Alpha  occ. eigenvalues --   -0.84874  -0.79936  -0.78350  -0.76039  -0.73050
 Alpha  occ. eigenvalues --   -0.68378  -0.64234  -0.62933  -0.58644  -0.55426
 Alpha  occ. eigenvalues --   -0.53386  -0.51132  -0.49085  -0.47440  -0.45715
 Alpha  occ. eigenvalues --   -0.44293  -0.44149  -0.42658  -0.41635  -0.40985
 Alpha  occ. eigenvalues --   -0.38894  -0.38179  -0.36647  -0.35485  -0.33838
 Alpha  occ. eigenvalues --   -0.33145  -0.32766  -0.28742  -0.25752  -0.23031
 Alpha  occ. eigenvalues --   -0.19456  -0.19272
 Alpha virt. eigenvalues --   -0.07593  -0.04719  -0.00689   0.01033   0.02351
 Alpha virt. eigenvalues --    0.03741   0.05564   0.07019   0.07945   0.08705
 Alpha virt. eigenvalues --    0.11111   0.12619   0.13056   0.13380   0.13978

 Mulliken charges:
               1
     1  C   -0.306103
     2  C   -0.070447
     3  C    0.250306
     4  C   -0.411782
     5  S   -0.138138
     6  C    0.000819
     7  C   -0.133527
     8  C   -0.145542
     9  C    0.206235
    10  C   -0.483652
    11  S    0.127047
    12  S   -0.622660
    13  H    0.128465
    14  H    0.121294
    15  H    0.118772
    16  H    0.130329
    17  H    0.127021
    18  H    0.129131
    19  H    0.127449
    20  H    0.126116
    21  H    0.189257
    22  H    0.164846
    23  H    0.235722
    24  H    0.129040
 Sum of Mulliken charges =  -0.00000

 Dipole moment (field-independent basis, Debye):
    X=              2.5143    Y=              4.3325    Z=             -1.5354  Tot=              5.2393
 Quadrupole moment (field-independent basis, Debye-Ang):
   XX=            -91.7210   YY=           -100.0484   ZZ=            -93.1161
   XY=            -21.2535   XZ=              2.0170   YZ=             -0.9328

  Exact polarizability: 235.895   6.708 187.108   6.665  -2.100 111.880
 Approx polarizability: 354.405  34.007 351.756  21.017  -0.760 204.598

                      1                      2                      3
                      A                      A                      A
 Frequencies --     28.0649                42.7995                67.3579
 Red. masses --      5.4810                 4.1144                 3.6450
 Frc consts  --      0.0025                 0.0044                 0.0097
 IR Inten    --      0.6205                 0.8837                 0.5822

                      4                      5                      6
                      A                      A                      A
 Frequencies --     89.9170               101.7213               128.4126
 Red. masses --      3.6707                 2.9711                 3.4124
 Frc consts  --      0.0175                 0.0181                 0.0332
 IR Inten    --      1.3119                 0.7677                 6.5333

                      7                      8                      9
                      A                      A                      A
 Frequencies --    147.3260               175.0580               190.3740
 Red. masses --      2.0663                 4.7026                 3.0973
 Frc consts  --      0.0264                 0.0849                 0.0661
 IR Inten    --     10.5310                 1.5852                60.8132

                     10                     11                     12
                      A                      A                      A
 Frequencies --    233.6687               237.2650               250.7526
 Red. masses --      1.1023                 3.3760                 3.6597
 Frc consts  --      0.0355                 0.1120                 0.1356
 IR Inten    --      4.6141                16.7437                23.4330

                     13                     14                     15
                      A                      A                      A
 Frequencies --    292.2361               317.2499               369.6948
 Red. masses --      4.1261                 3.0447                 3.1785
 Frc consts  --      0.2076                 0.1806                 0.2560
 IR Inten    --      0.6562                 1.7171                12.6108

                     16                     17                     18
                      A                      A                      A
 Frequencies --    391.3928               400.2047               447.0047
 Red. masses --      2.4251                 3.7225                 4.8024
 Frc consts  --      0.2189                 0.3513                 0.5654
 IR Inten    --     17.7771                 4.5805                11.2649

                     19                     20                     21
                      A                      A                      A
 Frequencies --    477.7428               497.1037               530.7580
 Red. masses --      6.3659                 2.5825                 3.4157
 Frc consts  --      0.8560                 0.3760                 0.5669
 IR Inten    --     99.3966                33.9596                 2.0462

                     22                     23                     24
                      A                      A                      A
 Frequencies --    566.3021               591.3819               641.1790
 Red. masses --      1.7352                 2.0562                 2.6625
 Frc consts  --      0.3279                 0.4237                 0.6449
 IR Inten    --     12.6640                 7.6909                 3.6268

                     25                     26                     27
                      A                      A                      A
 Frequencies --    660.7820               695.5975               704.0534
 Red. masses --      3.0573                 1.3549                 1.6954
 Frc consts  --      0.7865                 0.3863                 0.4952
 IR Inten    --      4.7347                54.4468                 5.6638

                     28                     29                     30
                      A                      A                      A
 Frequencies --    763.9611               850.9722               874.4410
 Red. masses --      1.4758                 1.3204                 1.1298
 Frc consts  --      0.5075                 0.5634                 0.5090
 IR Inten    --      8.6879                 9.9998                20.1010

                     31                     32                     33
                      A                      A                      A
 Frequencies --    896.3222               907.8323               909.5117
 Red. masses --      1.8555                 3.6124                 1.3908
 Frc consts  --      0.8783                 1.7541                 0.6778
 IR Inten    --      7.3122                 6.5706                46.8375

                     34                     35                     36
                      A                      A                      A
 Frequencies --    927.4211               966.0433               998.3905
 Red. masses --      1.4416                 1.3664                 1.9376
 Frc consts  --      0.7305                 0.7513                 1.1379
 IR Inten    --      7.6605                27.6725                 1.4813

                     37                     38                     39
                      A                      A                      A
 Frequencies --   1032.0446              1061.4256              1077.2607
 Red. masses --      1.1075                 1.4365                 1.5300
 Frc consts  --      0.6950                 0.9535                 1.0461
 IR Inten    --      9.3965                 2.3508                 8.4499

                     40                     41                     42
                      A                      A                      A
 Frequencies --   1089.0851              1144.7984              1149.1879
 Red. masses --      1.5545                 3.8976                 2.2248
 Frc consts  --      1.0863                 3.0095                 1.7311
 IR Inten    --      9.7028                14.7878                52.1701

                     43                     44                     45
                      A                      A                      A
 Frequencies --   1255.6977              1319.2287              1325.7946
 Red. masses --      1.2971                 2.0913                 1.2961
 Frc consts  --      1.2050                 2.1444                 1.3423
 IR Inten    --      6.0255                 1.5261                 0.9136

                     46                     47                     48
                      A                      A                      A
 Frequencies --   1415.5935              1419.4495              1453.7903
 Red. masses --      1.2344                 1.1726                 1.0505
 Frc consts  --      1.4575                 1.3920                 1.3081
 IR Inten    --      1.2856                 4.2011                16.7594

                     49                     50                     51
                      A                      A                      A
 Frequencies --   1454.8942              1477.9864              1550.7414
 Red. masses --      1.2182                 1.0833                 7.0161
 Frc consts  --      1.5193                 1.3942                 9.9409
 IR Inten    --     14.5566                15.7503                 7.1343

                     52                     53                     54
                      A                      A                      A
 Frequencies --   1651.0230              1657.9868              1684.9687
 Red. masses --      5.5416                 5.9191                 4.5008
 Frc consts  --      8.9001                 9.5867                 7.5287
 IR Inten    --     12.6265                 6.5240                 1.2779

                     55                     56                     57
                      A                      A                      A
 Frequencies --   2666.6801              2668.9724              3036.9179
 Red. masses --      1.0389                 1.0386                 1.0345
 Frc consts  --      4.3526                 4.3590                 5.6215
 IR Inten    --     14.4256                10.4208                10.4387

                     58                     59                     60
                      A                      A                      A
 Frequencies --   3102.1192              3118.7602              3151.1665
 Red. masses --      1.1000                 1.1019                 1.0636
 Frc consts  --      6.2366                 6.3147                 6.2225
 IR Inten    --      4.6395                 7.4969                 4.4956

                     61                     62                     63
                      A                      A                      A
 Frequencies --   3156.5198              3160.5069              3186.6654
 Red. masses --      1.0598                 1.0838                 1.0895
 Frc consts  --      6.2215                 6.3787                 6.5183
 IR Inten    --      0.6936                 4.2667                 8.0971

                     64                     65                     66
                      A                      A                      A
 Frequencies --   3200.2876              3241.1599              3244.6138
 Red. masses --      1.0953                 1.1155                 1.1156
 Frc consts  --      6.6091                 6.9041                 6.9197
 IR Inten    --      5.6921                 7.5237                 1.5541

 - Thermochemistry -
 -------------------
 Temperature   298.150 Kelvin.  Pressure   1.00000 Atm.
 Atom     1 has atomic number  6 and mass  12.00000

 Molecular mass:   216.01012 amu.
 Principal axes and moments of inertia in atomic units:
                           1         2         3
     Eigenvalues --  1822.081385085.223536305.19086
           X            0.99963  -0.02734  -0.00095
           Y            0.02733   0.99959  -0.00900
           Z            0.00120   0.00897   0.99996
 This molecule is an asymmetric top.
 Rotational symmetry number  1.
 Warning -- assumption of classical behavior for rotation
           may cause significant error
 Rotational temperatures (Kelvin)      0.04754     0.01703     0.01374
 Rotational constants (GHZ):           0.99048     0.35490     0.28623
 Zero-point vibrational energy     469687.5 (Joules/Mol)
                                  112.25801 (Kcal/Mol)
 Warning -- explicit consideration of  23 degrees of freedom as
           vibrations may cause significant error
 Vibrational temperatures:     40.38    61.58    96.91   129.37   146.35
          (Kelvin)            184.76   211.97   251.87   273.91   336.20
                              341.37   360.78   420.46   456.45   531.91
                              563.13   575.81   643.14   687.37   715.22
                              763.64   814.78   850.87   922.51   950.72
                             1000.81  1012.98  1099.17  1224.36  1258.13
                             1289.61  1306.17  1308.58  1334.35  1389.92
                             1436.46  1484.88  1527.15  1549.94  1566.95
                             1647.11  1653.43  1806.67  1898.08  1907.52
                             2036.72  2042.27  2091.68  2093.27  2126.49
                             2231.17  2375.45  2385.47  2424.29  3836.76
                             3840.06  4369.45  4463.26  4487.20  4533.83
                             4541.53  4547.26  4584.90  4604.50  4663.31
                             4668.28

 Zero-point correction=                           0.178895 (Hartree/Particle)
 Thermal correction to Energy=                    0.194053
 Thermal correction to Enthalpy=                  0.194997
 Thermal correction to Gibbs Free Energy=         0.135449
 Sum of electronic and zero-point Energies=          -1544.461379
 Sum of electronic and thermal Energies=             -1544.446220
 Sum of electronic and thermal Enthalpies=           -1544.445276
 Sum of electronic and thermal Free Energies=        -1544.504824

                     E (Thermal)             CV                S
                      KCal/Mol        Cal/Mol-Kelvin    Cal/Mol-Kelvin
 Total                  121.770             54.666            125.329
 Electronic               0.000              0.000              0.000
 Translational            0.889              2.981             42.014
 Rotational               0.889              2.981             32.435
 Vibrational            119.993             48.705             50.880
 Vibration     1          0.593              1.984              5.962
 Vibration     2          0.595              1.980              5.125
 Vibration     3          0.598              1.970              4.229
 Vibration     4          0.602              1.956              3.662
 Vibration     5          0.604              1.948              3.421
 Vibration     6          0.611              1.925              2.970
 Vibration     7          0.617              1.906              2.706
 Vibration     8          0.627              1.873              2.380
 Vibration     9          0.634              1.853              2.224
 Vibration    10          0.654              1.789              1.851
 Vibration    11          0.656              1.784              1.823
 Vibration    12          0.663              1.761              1.725
 Vibration    13          0.688              1.688              1.461
 Vibration    14          0.704              1.641              1.324
 Vibration    15          0.742              1.534              1.081
 Vibration    16          0.759              1.489              0.995
 Vibration    17          0.766              1.470              0.962
 Vibration    18          0.806              1.368              0.805
 Vibration    19          0.834              1.299              0.716
 Vibration    20          0.853              1.256              0.665
 Vibration    21          0.886              1.182              0.586
 Vibration    22          0.922              1.104              0.511
 Vibration    23          0.949              1.050              0.465

                           ! Non-Optimized Parameters !
 Normal termination of Gaussian 16 at Wed May 17 15:58:56 2023.
