 Gaussian 16, Revision A.03,
 Gaussian 16:  ES64L-G16RevA.03 25-Dec-2016

 -----------------------------
 # opt freq b3lyp/6-31g(2df,p)
 -----------------------------

 -------------------
 Title Card Required
 -------------------
 Symbolic Z-matrix:
 Charge =  0 Multiplicity = 1

 SCF Done:  E(RB3LYP) =  -1597.79288485     A.U. after   16 cycles
 SCF Done:  E(RB3LYP) =  -1597.81576297     A.U. after   16 cycles
 SCF Done:  E(RB3LYP) =  -1597.83002176     A.U. after   14 cycles
 SCF Done:  E(RB3LYP) =  -1597.83544662     A.U. after   14 cycles
 SCF Done:  E(RB3LYP) =  -1597.83508816     A.U. after   15 cycles
 SCF Done:  E(RB3LYP) =  -1597.83698567     A.U. after   14 cycles
 SCF Done:  E(RB3LYP) =  -1597.83914005     A.U. after   13 cycles
 SCF Done:  E(RB3LYP) =  -1597.83967490     A.U. after   13 cycles
 SCF Done:  E(RB3LYP) =  -1597.84026299     A.U. after   14 cycles
 SCF Done:  E(RB3LYP) =  -1597.84060749     A.U. after   13 cycles
 SCF Done:  E(RB3LYP) =  -1597.84091398     A.U. after   11 cycles
 SCF Done:  E(RB3LYP) =  -1597.84092148     A.U. after   13 cycles
 SCF Done:  E(RB3LYP) =  -1597.84092741     A.U. after   12 cycles
 SCF Done:  E(RB3LYP) =  -1597.84093286     A.U. after   11 cycles
 SCF Done:  E(RB3LYP) =  -1597.84093600     A.U. after   13 cycles
 SCF Done:  E(RB3LYP) =  -1597.84093726     A.U. after   11 cycles
 SCF Done:  E(RB3LYP) =  -1597.84093754     A.U. after   11 cycles
 SCF Done:  E(RB3LYP) =  -1597.84093768     A.U. after    9 cycles
 SCF Done:  E(RB3LYP) =  -1597.84093771     A.U. after    8 cycles
 Optimization completed.
    -- Stationary point found.
 Normal termination of Gaussian 16 at Thu May 18 21:25:44 2023.

 ----------------------------------------------------------------------
 #N Geom=AllCheck Guess=TCheck SCRF=Check GenChk RB3LYP/6-31G(2df,p) Fr
 eq
 ----------------------------------------------------------------------

 Structure from the checkpoint file:  "CdCCqCdSrdNCqOCCr[SH]dS.chk"
 -------------------
 Title Card Required
 -------------------
 Charge =  0 Multiplicity = 1

                         Standard orientation:
 ---------------------------------------------------------------------
 Center     Atomic      Atomic             Coordinates (Angstroms)
 Number     Number       Type             X           Y           Z
 ---------------------------------------------------------------------
      1          6           0       -4.025450   -0.428971    1.306970
      2          6           0       -2.758714   -0.086601    1.556708
      3          6           0       -1.639521   -0.148807    0.612525
      4          6           0       -1.881842   -0.644186   -0.782245
      5         16           0       -2.628501    0.203781   -1.939870
      6          7           0       -0.480363    0.208308    1.046658
      7          6           0        0.677865    0.147026    0.217173
      8          8           0        1.544279    1.193659    0.450006
      9          6           0        1.204526    2.403193   -0.236781
     10          6           0        2.289825    3.422309    0.053746
     11         16           0        1.710522   -1.374109    0.780310
     12         16           0        2.839418   -1.972336   -0.737636
     13          1           0       -4.781216   -0.354793    2.080638
     14          1           0       -4.355984   -0.785243    0.338480
     15          1           0       -2.457716    0.262947    2.540316
     16          1           0       -1.488995   -1.642245   -0.999643
     17          1           0        0.510644   -0.013162   -0.859460
     18          1           0        0.224337    2.759039    0.108530
     19          1           0        1.132153    2.199630   -1.315408
     20          1           0        2.354772    3.618181    1.127332
     21          1           0        2.066736    4.362397   -0.459081
     22          1           0        3.260605    3.056910   -0.291148
     23          1           0        0.599808   -2.172241    0.789347
 ---------------------------------------------------------------------

 SCF Done:  E(RB3LYP) =  -1597.84093771     A.U. after    1 cycles

 The electronic state is 1-A.
 Alpha  occ. eigenvalues --  -88.96796 -88.89795 -88.83271 -19.16755 -14.35885
 Alpha  occ. eigenvalues --  -10.30789 -10.28723 -10.27988 -10.24452 -10.22323
 Alpha  occ. eigenvalues --  -10.22136 -10.18443  -8.02501  -7.96293  -7.89917
 Alpha  occ. eigenvalues --   -5.98793  -5.98722  -5.98266  -5.92703  -5.92536
 Alpha  occ. eigenvalues --   -5.91739  -5.86619  -5.85671  -5.85489  -1.07373
 Alpha  occ. eigenvalues --   -0.96170  -0.84758  -0.82574  -0.80284  -0.77180
 Alpha  occ. eigenvalues --   -0.71140  -0.65775  -0.63764  -0.62353  -0.60552
 Alpha  occ. eigenvalues --   -0.55869  -0.54128  -0.52389  -0.48989  -0.48005
 Alpha  occ. eigenvalues --   -0.47012  -0.45402  -0.44278  -0.42496  -0.39942
 Alpha  occ. eigenvalues --   -0.39280  -0.39000  -0.37498  -0.36295  -0.34960
 Alpha  occ. eigenvalues --   -0.34529  -0.33348  -0.30271  -0.29382  -0.28475
 Alpha  occ. eigenvalues --   -0.24921  -0.22765  -0.20965
 Alpha virt. eigenvalues --   -0.12059  -0.08437  -0.01528   0.00098   0.02573
 Alpha virt. eigenvalues --    0.04118   0.06367   0.08992   0.10296   0.10791
 Alpha virt. eigenvalues --    0.11934   0.13090   0.13991   0.14247   0.16004

 Mulliken charges:
               1
     1  C   -0.312774
     2  C   -0.036911
     3  C    0.289133
     4  C   -0.100804
     5  S   -0.166610
     6  N   -0.261598
     7  C    0.067489
     8  O   -0.230751
     9  C   -0.051132
    10  C   -0.387358
    11  S    0.148420
    12  S   -0.395433
    13  H    0.139831
    14  H    0.136443
    15  H    0.123795
    16  H    0.167592
    17  H    0.119617
    18  H    0.110932
    19  H    0.107374
    20  H    0.134923
    21  H    0.121704
    22  H    0.140384
    23  H    0.135735
 Sum of Mulliken charges =  -0.00000

 Dipole moment (field-independent basis, Debye):
    X=             -4.8871    Y=              1.3234    Z=              1.4390  Tot=              5.2637
 Quadrupole moment (field-independent basis, Debye-Ang):
   XX=            -97.7713   YY=            -90.8376   ZZ=            -95.3419
   XY=             11.9351   XZ=             -3.8648   YZ=             -4.4724

  Exact polarizability: 220.024 -15.918 128.397 -13.299   2.073 131.512
 Approx polarizability: 346.883 -29.591 196.529 -17.052   2.094 232.082

                      1                      2                      3
                      A                      A                      A
 Frequencies --     13.8949                27.8001                39.2203
 Red. masses --      6.8805                 8.0029                 8.3838
 Frc consts  --      0.0008                 0.0036                 0.0076
 IR Inten    --      1.6567                 2.2150                 1.4529

                      4                      5                      6
                      A                      A                      A
 Frequencies --     44.5598                59.2992                68.2218
 Red. masses --      4.1083                 1.6931                 5.4713
 Frc consts  --      0.0048                 0.0035                 0.0150
 IR Inten    --      2.3244                 0.5011                 0.7384

                      7                      8                      9
                      A                      A                      A
 Frequencies --    121.9906               144.7739               171.5042
 Red. masses --      3.7401                 3.5601                 4.4234
 Frc consts  --      0.0328                 0.0440                 0.0767
 IR Inten    --      0.4114                 4.1789                 1.9934

                     10                     11                     12
                      A                      A                      A
 Frequencies --    176.3684               224.1848               245.2332
 Red. masses --      4.5834                 4.1526                 1.7454
 Frc consts  --      0.0840                 0.1230                 0.0618
 IR Inten    --      1.9004                 1.6559                 0.5357

                     13                     14                     15
                      A                      A                      A
 Frequencies --    248.5482               317.6150               323.1600
 Red. masses --      1.6199                 4.2035                 7.3334
 Frc consts  --      0.0590                 0.2498                 0.4512
 IR Inten    --      3.5455                 0.7580                 4.4327

                     16                     17                     18
                      A                      A                      A
 Frequencies --    357.4710               442.9314               484.6014
 Red. masses --      4.2355                 3.2111                 3.0910
 Frc consts  --      0.3189                 0.3712                 0.4277
 IR Inten    --      8.0327                 4.9387                 0.4318

                     19                     20                     21
                      A                      A                      A
 Frequencies --    501.8016               576.2229               622.2744
 Red. masses --      3.3592                22.5515                 2.5951
 Frc consts  --      0.4984                 4.4117                 0.5921
 IR Inten    --      1.9162                71.7695                 3.3152

                     22                     23                     24
                      A                      A                      A
 Frequencies --    718.9231               748.9799               785.0866
 Red. masses --      4.5392                 3.0807                 1.2349
 Frc consts  --      1.3823                 1.0182                 0.4485
 IR Inten    --     16.0449                 0.4644                 3.0916

                     25                     26                     27
                      A                      A                      A
 Frequencies --    802.5310               822.9576               874.4399
 Red. masses --      2.5184                 1.0910                 2.4105
 Frc consts  --      0.9557                 0.4353                 1.0860
 IR Inten    --      4.5441                 0.8412                 8.9057

                     28                     29                     30
                      A                      A                      A
 Frequencies --    895.4073               958.1518               984.5139
 Red. masses --      1.8376                 1.2708                 1.3530
 Frc consts  --      0.8680                 0.6874                 0.7727
 IR Inten    --     15.3734                32.5071                22.1281

                     31                     32                     33
                      A                      A                      A
 Frequencies --   1021.6417              1033.0411              1043.8121
 Red. masses --      1.6872                 5.9770                 1.1253
 Frc consts  --      1.0376                 3.7581                 0.7224
 IR Inten    --     19.4010                14.8348                10.9806

                     34                     35                     36
                      A                      A                      A
 Frequencies --   1065.3390              1101.7283              1136.5684
 Red. masses --      3.2949                 2.4451                 2.2147
 Frc consts  --      2.2033                 1.7486                 1.6856
 IR Inten    --     23.8926                14.7116                54.5316

                     37                     38                     39
                      A                      A                      A
 Frequencies --   1161.3786              1184.4198              1204.5511
 Red. masses --      4.5516                 1.6033                 1.3537
 Frc consts  --      3.6171                 1.3252                 1.1572
 IR Inten    --    295.2764                23.9487                42.4643

                     40                     41                     42
                      A                      A                      A
 Frequencies --   1278.9337              1298.4675              1307.1482
 Red. masses --      2.5358                 1.1069                 1.3245
 Frc consts  --      2.4438                 1.0995                 1.3333
 IR Inten    --     26.5221                 2.1227                 2.9459

                     43                     44                     45
                      A                      A                      A
 Frequencies --   1334.8768              1374.8663              1405.9974
 Red. masses --      2.0026                 1.1687                 1.2349
 Frc consts  --      2.1025                 1.3016                 1.4383
 IR Inten    --     25.2945                56.9791                 8.3397

                     46                     47                     48
                      A                      A                      A
 Frequencies --   1437.8523              1451.1871              1482.8891
 Red. masses --      1.3656                 1.2477                 1.0393
 Frc consts  --      1.6634                 1.5481                 1.3465
 IR Inten    --      2.1897                 8.5138                 5.1994

                     49                     50                     51
                      A                      A                      A
 Frequencies --   1499.7343              1522.8633              1620.6951
 Red. masses --      1.0485                 1.0882                10.7554
 Frc consts  --      1.3894                 1.4869                16.6449
 IR Inten    --      2.7228                 2.8127               120.7414

                     52                     53                     54
                      A                      A                      A
 Frequencies --   1679.5109              2451.6278              2978.5755
 Red. masses --      4.3652                 1.0392                 1.0823
 Frc consts  --      7.2547                 3.6802                 5.6571
 IR Inten    --      4.0515                65.2635                14.1965

                     55                     56                     57
                      A                      A                      A
 Frequencies --   2994.3170              3035.7724              3049.2196
 Red. masses --      1.0580                 1.1049                 1.0347
 Frc consts  --      5.5890                 5.9993                 5.6680
 IR Inten    --     28.7093                24.7175                15.3296

                     58                     59                     60
                      A                      A                      A
 Frequencies --   3069.6018              3124.4126              3130.2384
 Red. masses --      1.0858                 1.1015                 1.1033
 Frc consts  --      6.0278                 6.3353                 6.3691
 IR Inten    --      7.9031                16.9990                17.5356

                     61                     62                     63
                      A                      A                      A
 Frequencies --   3164.5164              3179.5192              3251.3937
 Red. masses --      1.0593                 1.0922                 1.1150
 Frc consts  --      6.2501                 6.5052                 6.9449
 IR Inten    --      0.8284                 1.8966                 3.1742

 - Thermochemistry -
 -------------------
 Temperature   298.150 Kelvin.  Pressure   1.00000 Atm.
 Atom     1 has atomic number  6 and mass  12.00000

 Molecular mass:   221.00028 amu.
 Principal axes and moments of inertia in atomic units:
                           1         2         3
     Eigenvalues --  2649.852054963.861525794.10454
           X            0.99832   0.05471  -0.01934
           Y           -0.05491   0.99844  -0.00993
           Z            0.01876   0.01097   0.99976
 This molecule is an asymmetric top.
 Rotational symmetry number  1.
 Warning -- assumption of classical behavior for rotation
           may cause significant error
 Rotational temperatures (Kelvin)      0.03269     0.01745     0.01495
 Rotational constants (GHZ):           0.68107     0.36358     0.31148
 Zero-point vibrational energy     447878.1 (Joules/Mol)
                                  107.04543 (Kcal/Mol)
 Warning -- explicit consideration of  20 degrees of freedom as
           vibrations may cause significant error
 Vibrational temperatures:     19.99    40.00    56.43    64.11    85.32
          (Kelvin)             98.16   175.52   208.30   246.76   253.75
                              322.55   352.84   357.61   456.98   464.96
                              514.32   637.28   697.23   721.98   829.06
                              895.31  1034.37  1077.62  1129.56  1154.66
                             1184.05  1258.12  1288.29  1378.57  1416.50
                             1469.91  1486.32  1501.81  1532.79  1585.14
                             1635.27  1670.96  1704.12  1733.08  1840.10
                             1868.21  1880.69  1920.59  1978.13  2022.92
                             2068.75  2087.93  2133.55  2157.78  2191.06
                             2331.82  2416.44  3527.35  4285.51  4308.15
                             4367.80  4387.15  4416.47  4495.33  4503.71
                             4553.03  4574.62  4678.03

 Zero-point correction=                           0.170588 (Hartree/Particle)
 Thermal correction to Energy=                    0.185730
 Thermal correction to Enthalpy=                  0.186674
 Thermal correction to Gibbs Free Energy=         0.123746
 Sum of electronic and zero-point Energies=          -1597.670350
 Sum of electronic and thermal Energies=             -1597.655208
 Sum of electronic and thermal Enthalpies=           -1597.654264
 Sum of electronic and thermal Free Energies=        -1597.717192

                     E (Thermal)             CV                S
                      KCal/Mol        Cal/Mol-Kelvin    Cal/Mol-Kelvin
 Total                  116.547             50.714            132.443
 Electronic               0.000              0.000              0.000
 Translational            0.889              2.981             42.082
 Rotational               0.889              2.981             32.699
 Vibrational            114.770             44.752             57.662
 Vibration     1          0.593              1.986              7.358
 Vibration     2          0.593              1.984              5.981
 Vibration     3          0.594              1.981              5.298
 Vibration     4          0.595              1.980              5.045
 Vibration     5          0.597              1.974              4.480
 Vibration     6          0.598              1.969              4.204
 Vibration     7          0.609              1.931              3.069
 Vibration     8          0.616              1.908              2.740
 Vibration     9          0.626              1.878              2.419
 Vibration    10          0.628              1.871              2.367
 Vibration    11          0.649              1.804              1.925
 Vibration    12          0.660              1.771              1.765
 Vibration    13          0.662              1.765              1.741
 Vibration    14          0.704              1.640              1.322
 Vibration    15          0.708              1.629              1.294
 Vibration    16          0.733              1.560              1.133
 Vibration    17          0.803              1.376              0.817
 Vibration    18          0.841              1.284              0.698
 Vibration    19          0.857              1.246              0.654
 Vibration    20          0.933              1.083              0.492

                           ! Non-Optimized Parameters !
 Normal termination of Gaussian 16 at Thu May 18 22:17:53 2023.
