 Gaussian 16, Revision A.03,
 Gaussian 16:  ES64L-G16RevA.03 25-Dec-2016

 -----------------------------
 # opt freq b3lyp/6-31g(2df,p)
 -----------------------------

 -------------------
 Title Card Required
 -------------------
 Symbolic Z-matrix:
 Charge =  0 Multiplicity = 1

 SCF Done:  E(RB3LYP) =  -861.378730625     A.U. after   19 cycles
 SCF Done:  E(RB3LYP) =  -861.385837458     A.U. after   15 cycles
 SCF Done:  E(RB3LYP) =  -861.385856858     A.U. after   14 cycles
 SCF Done:  E(RB3LYP) =  -861.386549852     A.U. after   14 cycles
 SCF Done:  E(RB3LYP) =  -861.387420568     A.U. after   13 cycles
 SCF Done:  E(RB3LYP) =  -861.387344267     A.U. after   13 cycles
 SCF Done:  E(RB3LYP) =  -861.387408414     A.U. after   14 cycles
 SCF Done:  E(RB3LYP) =  -861.387649464     A.U. after   13 cycles
 SCF Done:  E(RB3LYP) =  -861.387706225     A.U. after   12 cycles
 SCF Done:  E(RB3LYP) =  -861.387714525     A.U. after   11 cycles
 SCF Done:  E(RB3LYP) =  -861.387715701     A.U. after    8 cycles
 SCF Done:  E(RB3LYP) =  -861.387715945     A.U. after    8 cycles
 SCF Done:  E(RB3LYP) =  -861.387716014     A.U. after    7 cycles
 Optimization completed.
    -- Stationary point found.
 Normal termination of Gaussian 16 at Sat May 20 00:15:59 2023.

 ----------------------------------------------------------------------
 #N Geom=AllCheck Guess=TCheck SCRF=Check GenChk RB3LYP/6-31G(2df,p) Fr
 eq
 ----------------------------------------------------------------------

 Structure from the checkpoint file:  "CdCC1dCCdCC1dCCdCdCCdS.chk"
 -------------------
 Title Card Required
 -------------------
 Charge =  0 Multiplicity = 1

                         Standard orientation:
 ---------------------------------------------------------------------
 Center     Atomic      Atomic             Coordinates (Angstroms)
 Number     Number       Type             X           Y           Z
 ---------------------------------------------------------------------
      1          6           0        2.327680    2.778836    0.401554
      2          6           0        3.102840    1.909954   -0.259327
      3          6           0        3.066367    0.458150   -0.224457
      4          6           0        4.133442   -0.354117   -0.476669
      5          6           0        3.753836   -1.747731   -0.274956
      6          6           0        2.449403   -1.804411    0.086095
      7          6           0        1.923836   -0.435786    0.101720
      8          6           0        0.629701   -0.059249    0.232914
      9          6           0       -0.473875   -0.960313    0.510553
     10          6           0       -1.722435   -0.574591    0.616736
     11          6           0       -2.977246   -0.190629    0.708658
     12          6           0       -3.860744   -0.156393   -0.443362
     13         16           0       -5.423906    0.304951   -0.408901
     14          1           0        2.473785    3.847308    0.291211
     15          1           0        1.554643    2.468320    1.094340
     16          1           0        3.901154    2.316882   -0.879325
     17          1           0        5.124319   -0.018424   -0.755288
     18          1           0        4.420605   -2.590374   -0.402740
     19          1           0        1.871909   -2.697201    0.276071
     20          1           0        0.369751    0.985796    0.107330
     21          1           0       -0.255505   -2.017717    0.649691
     22          1           0       -3.394778    0.115571    1.666218
     23          1           0       -3.400204   -0.471700   -1.381839
 ---------------------------------------------------------------------

 SCF Done:  E(RB3LYP) =  -861.387716014     A.U. after    1 cycles

 The electronic state is 1-A.
 Alpha  occ. eigenvalues --  -88.86157 -10.26150 -10.24174 -10.23089 -10.22792
 Alpha  occ. eigenvalues --  -10.22461 -10.20991 -10.19487 -10.19280 -10.19181
 Alpha  occ. eigenvalues --  -10.18801 -10.18581 -10.18088  -7.92699  -5.89037
 Alpha  occ. eigenvalues --   -5.88966  -5.88186  -0.87821  -0.85287  -0.81667
 Alpha  occ. eigenvalues --   -0.78156  -0.76369  -0.71844  -0.70492  -0.63904
 Alpha  occ. eigenvalues --   -0.59774  -0.58836  -0.56421  -0.53709  -0.52978
 Alpha  occ. eigenvalues --   -0.50515  -0.49175  -0.45229  -0.44574  -0.44103
 Alpha  occ. eigenvalues --   -0.41591  -0.39320  -0.38668  -0.38474  -0.38188
 Alpha  occ. eigenvalues --   -0.36725  -0.35698  -0.34172  -0.33160  -0.28878
 Alpha  occ. eigenvalues --   -0.26926  -0.24622  -0.22647  -0.20752
 Alpha virt. eigenvalues --   -0.09830  -0.09085  -0.00928   0.02391   0.02569
 Alpha virt. eigenvalues --    0.08295   0.09643   0.09898   0.10955   0.12091
 Alpha virt. eigenvalues --    0.12430   0.12913   0.13780   0.15409   0.16084

 Mulliken charges:
               1
     1  C   -0.355440
     2  C   -0.070609
     3  C    0.192154
     4  C   -0.197162
     5  C   -0.124559
     6  C   -0.193749
     7  C    0.212861
     8  C   -0.180965
     9  C   -0.324088
    10  C    0.398018
    11  C   -0.281808
    12  C    0.007127
    13  S   -0.249402
    14  H    0.114063
    15  H    0.105406
    16  H    0.092035
    17  H    0.103122
    18  H    0.105722
    19  H    0.101717
    20  H    0.118821
    21  H    0.142964
    22  H    0.147213
    23  H    0.136557
 Sum of Mulliken charges =  -0.00000

 Dipole moment (field-independent basis, Debye):
    X=              2.7886    Y=             -1.0155    Z=              0.4307  Tot=              2.9988
 Quadrupole moment (field-independent basis, Debye-Ang):
   XX=            -99.0751   YY=            -77.4373   ZZ=            -84.4236
   XY=              1.5163   XZ=             -5.3425   YZ=             -0.3503

  Exact polarizability: 338.944 -31.196 148.631 -13.431   3.993  81.617
 Approx polarizability: 521.934 -88.383 249.167 -35.816  11.844 137.271

                      1                      2                      3
                      A                      A                      A
 Frequencies --     33.4613                37.3036                96.2138
 Red. masses --      6.0008                 7.4342                 3.0320
 Frc consts  --      0.0040                 0.0061                 0.0165
 IR Inten    --      0.7090                 0.9222                 1.0811

                      4                      5                      6
                      A                      A                      A
 Frequencies --    114.0472               122.7665               141.2429
 Red. masses --      3.7073                 3.0061                 3.3491
 Frc consts  --      0.0284                 0.0267                 0.0394
 IR Inten    --      0.8298                 1.0175                 1.5906

                      7                      8                      9
                      A                      A                      A
 Frequencies --    197.2287               214.4834               216.6549
 Red. masses --      3.1622                 4.6046                 3.9974
 Frc consts  --      0.0725                 0.1248                 0.1106
 IR Inten    --      0.2774                 1.5073                 1.3486

                     10                     11                     12
                      A                      A                      A
 Frequencies --    260.1200               330.4181               377.8522
 Red. masses --      3.0518                 4.6521                 2.4186
 Frc consts  --      0.1217                 0.2992                 0.2035
 IR Inten    --      0.3136                 2.4180                 4.1491

                     13                     14                     15
                      A                      A                      A
 Frequencies --    400.0828               489.0237               514.5820
 Red. masses --      4.2113                 3.9162                 4.3378
 Frc consts  --      0.3972                 0.5518                 0.6768
 IR Inten    --     13.8508                 1.5369                 5.8517

                     16                     17                     18
                      A                      A                      A
 Frequencies --    549.3551               573.9983               634.3354
 Red. masses --      3.7327                 3.6540                 2.7976
 Frc consts  --      0.6637                 0.7093                 0.6632
 IR Inten    --      2.7534                 5.3597                15.2821

                     19                     20                     21
                      A                      A                      A
 Frequencies --    648.7807               714.3894               784.2409
 Red. masses --      2.2585                 1.5636                 3.3922
 Frc consts  --      0.5601                 0.4702                 1.2292
 IR Inten    --     15.6826                21.1965                13.9762

                     22                     23                     24
                      A                      A                      A
 Frequencies --    788.8118               819.6357               837.7050
 Red. masses --      2.8570                 1.4381                 4.1367
 Frc consts  --      1.0474                 0.5692                 1.7104
 IR Inten    --     18.8058                11.8593                11.0272

                     25                     26                     27
                      A                      A                      A
 Frequencies --    873.3898               912.8356               922.5132
 Red. masses --      1.4443                 1.6934                 1.3409
 Frc consts  --      0.6491                 0.8314                 0.6724
 IR Inten    --     13.0442                 3.4009                14.4290

                     28                     29                     30
                      A                      A                      A
 Frequencies --    925.4479               931.9505               967.0639
 Red. masses --      1.3902                 1.2846                 1.2820
 Frc consts  --      0.7015                 0.6573                 0.7064
 IR Inten    --     14.3764                15.6873                 9.5153

                     31                     32                     33
                      A                      A                      A
 Frequencies --    983.7921              1004.2126              1030.1086
 Red. masses --      2.0938                 3.8956                 1.4287
 Frc consts  --      1.1940                 2.3146                 0.8932
 IR Inten    --     12.9524                 8.9432                11.9332

                     34                     35                     36
                      A                      A                      A
 Frequencies --   1041.9547              1055.2770              1096.5352
 Red. masses --      1.6315                 2.2200                 1.6409
 Frc consts  --      1.0436                 1.4566                 1.1625
 IR Inten    --     20.1337                18.5597                11.4934

                     37                     38                     39
                      A                      A                      A
 Frequencies --   1142.4571              1163.7648              1183.6370
 Red. masses --      1.4664                 2.9046                 1.8264
 Frc consts  --      1.1277                 2.3178                 1.5076
 IR Inten    --     55.9238               182.4647                50.2542

                     40                     41                     42
                      A                      A                      A
 Frequencies --   1235.6551              1247.6341              1291.1488
 Red. masses --      1.6100                 1.2104                 1.6350
 Frc consts  --      1.4483                 1.1101                 1.6059
 IR Inten    --     15.7271                15.8555                27.6571

                     43                     44                     45
                      A                      A                      A
 Frequencies --   1324.7921              1351.1863              1364.6797
 Red. masses --      1.6189                 1.7082                 1.8800
 Frc consts  --      1.6741                 1.8375                 2.0629
 IR Inten    --      1.4967                10.0295                 1.5542

                     46                     47                     48
                      A                      A                      A
 Frequencies --   1400.7753              1451.9929              1456.8158
 Red. masses --      1.7986                 1.3846                 2.6110
 Frc consts  --      2.0793                 1.7200                 3.2648
 IR Inten    --     44.6849                25.8208                65.5444

                     49                     50                     51
                      A                      A                      A
 Frequencies --   1525.6538              1606.3428              1663.9400
 Red. masses --      4.9167                 4.7032                 7.2221
 Frc consts  --      6.7427                 7.1503                11.7812
 IR Inten    --     94.4281                 2.8415                79.3255

                     52                     53                     54
                      A                      A                      A
 Frequencies --   1686.5163              1990.7193              3101.0736
 Red. masses --      4.8988                10.9418                 1.0870
 Frc consts  --      8.2097                25.5480                 6.1589
 IR Inten    --     20.5373               339.4228                 5.3965

                     55                     56                     57
                      A                      A                      A
 Frequencies --   3129.3433              3140.3299              3144.7961
 Red. masses --      1.0847                 1.0855                 1.0876
 Frc consts  --      6.2584                 6.3069                 6.3373
 IR Inten    --     20.1206                 1.1987                 0.5761

                     58                     59                     60
                      A                      A                      A
 Frequencies --   3161.3387              3198.1179              3209.4596
 Red. masses --      1.0628                 1.0886                 1.0893
 Frc consts  --      6.2579                 6.5598                 6.6106
 IR Inten    --      2.0326                 4.2592                10.0615

                     61                     62                     63
                      A                      A                      A
 Frequencies --   3221.8779              3242.3258              3243.3798
 Red. masses --      1.0919                 1.1142                 1.1027
 Frc consts  --      6.6783                 6.9014                 6.8345
 IR Inten    --     12.5669                13.5021                 7.0080

 - Thermochemistry -
 -------------------
 Temperature   298.150 Kelvin.  Pressure   1.00000 Atm.
 Atom     1 has atomic number  6 and mass  12.00000

 Molecular mass:   186.05032 amu.
 Principal axes and moments of inertia in atomic units:
                           1         2         3
     Eigenvalues --  1144.014267807.704128685.48596
           X            0.99999   0.00427  -0.00332
           Y           -0.00424   0.99997   0.00691
           Z            0.00335  -0.00690   0.99997
 This molecule is an asymmetric top.
 Rotational symmetry number  1.
 Warning -- assumption of classical behavior for rotation
           may cause significant error
 Rotational temperatures (Kelvin)      0.07571     0.01109     0.00997
 Rotational constants (GHZ):           1.57755     0.23115     0.20779
 Zero-point vibrational energy     463681.9 (Joules/Mol)
                                  110.82265 (Kcal/Mol)
 Warning -- explicit consideration of  17 degrees of freedom as
           vibrations may cause significant error
 Vibrational temperatures:     48.14    53.67   138.43   164.09   176.63
          (Kelvin)            203.22   283.77   308.59   311.72   374.25
                              475.40   543.65   575.63   703.60   740.37
                              790.40   825.86   912.67   933.45  1027.85
                             1128.35  1134.92  1179.27  1205.27  1256.61
                             1313.37  1327.29  1331.51  1340.87  1391.39
                             1415.46  1444.84  1482.10  1499.14  1518.31
                             1577.67  1643.74  1674.40  1702.99  1777.83
                             1795.07  1857.68  1906.08  1944.06  1963.47
                             2015.40  2089.09  2096.03  2195.08  2311.17
                             2394.04  2426.52  2864.20  4461.75  4502.43
                             4518.23  4524.66  4548.46  4601.38  4617.70
                             4635.56  4664.98  4666.50

 Zero-point correction=                           0.176607 (Hartree/Particle)
 Thermal correction to Energy=                    0.189260
 Thermal correction to Enthalpy=                  0.190205
 Thermal correction to Gibbs Free Energy=         0.135653
 Sum of electronic and zero-point Energies=           -861.211109
 Sum of electronic and thermal Energies=              -861.198456
 Sum of electronic and thermal Enthalpies=            -861.197512
 Sum of electronic and thermal Free Energies=         -861.252063

                     E (Thermal)             CV                S
                      KCal/Mol        Cal/Mol-Kelvin    Cal/Mol-Kelvin
 Total                  118.763             46.409            114.813
 Electronic               0.000              0.000              0.000
 Translational            0.889              2.981             41.569
 Rotational               0.889              2.981             32.717
 Vibrational            116.985             40.448             40.528
 Vibration     1          0.594              1.983              5.613
 Vibration     2          0.594              1.982              5.397
 Vibration     3          0.603              1.952              3.530
 Vibration     4          0.607              1.938              3.199
 Vibration     5          0.610              1.930              3.056
 Vibration     6          0.615              1.912              2.787
 Vibration     7          0.637              1.844              2.159
 Vibration     8          0.644              1.819              2.005
 Vibration     9          0.645              1.816              1.987
 Vibration    10          0.668              1.746              1.661
 Vibration    11          0.713              1.615              1.258
 Vibration    12          0.748              1.517              1.048
 Vibration    13          0.766              1.470              0.962
 Vibration    14          0.845              1.274              0.686
 Vibration    15          0.870              1.218              0.623
 Vibration    16          0.905              1.141              0.546
 Vibration    17          0.930              1.087              0.497

 Optimization completed.
    -- Stationary point found.
 Normal termination of Gaussian 16 at Sat May 20 01:11:27 2023.
