 Gaussian 16, Revision A.03,
 Gaussian 16:  ES64L-G16RevA.03 25-Dec-2016

 -----------------------------
 # opt freq b3lyp/6-31g(2df,p)
 -----------------------------

 -------------------
 Title Card Required
 -------------------
 Symbolic Z-matrix:
 Charge =  0 Multiplicity = 1

 SCF Done:  E(RB3LYP) =  -909.091542544     A.U. after   40 cycles
 SCF Done:  E(RB3LYP) =  -909.200062737     A.U. after   29 cycles
 SCF Done:  E(RB3LYP) =  -909.373895539     A.U. after   21 cycles
 SCF Done:  E(RB3LYP) =  -909.494808352     A.U. after   23 cycles
 SCF Done:  E(RB3LYP) =  -909.605659648     A.U. after   16 cycles
 SCF Done:  E(RB3LYP) =  -909.713750711     A.U. after   16 cycles
 SCF Done:  E(RB3LYP) =  -909.767075581     A.U. after   16 cycles
 SCF Done:  E(RB3LYP) =  -909.820831505     A.U. after   16 cycles
 SCF Done:  E(RB3LYP) =  -909.848649961     A.U. after   16 cycles
 SCF Done:  E(RB3LYP) =  -909.894730553     A.U. after   15 cycles
 SCF Done:  E(RB3LYP) =  -909.987837213     A.U. after   10 cycles
 SCF Done:  E(RB3LYP) =  -909.987838373     A.U. after    8 cycles
 SCF Done:  E(RB3LYP) =  -909.987838903     A.U. after    8 cycles
 SCF Done:  E(RB3LYP) =  -909.987839217     A.U. after    8 cycles
 SCF Done:  E(RB3LYP) =  -909.987839628     A.U. after    8 cycles
 SCF Done:  E(RB3LYP) =  -909.987839853     A.U. after    8 cycles
 SCF Done:  E(RB3LYP) =  -909.987839948     A.U. after    7 cycles
 SCF Done:  E(RB3LYP) =  -909.987840038     A.U. after    7 cycles
 SCF Done:  E(RB3LYP) =  -909.987840070     A.U. after    7 cycles
 Optimization completed.
    -- Stationary point found.
 Normal termination of Gaussian 16 at Thu May 18 04:20:31 2023.

 ----------------------------------------------------------------------
 #N Geom=AllCheck Guess=TCheck SCRF=Check GenChk RB3LYP/6-31G(2df,p) Fr
 eq
 ----------------------------------------------------------------------

 Structure from the checkpoint file:  "CdCCNOC1CCdCNdCNdCC2dNC2dC1OO.chk"
 -------------------
 Title Card Required
 -------------------
 Charge =  0 Multiplicity = 1

                         Standard orientation:
 ---------------------------------------------------------------------
 Center     Atomic      Atomic             Coordinates (Angstroms)
 Number     Number       Type             X           Y           Z
 ---------------------------------------------------------------------
      1          6           0       -6.557581   -0.521861    0.363569
      2          6           0       -5.382719   -0.985204   -0.049992
      3          6           0       -4.086014   -0.780971    0.679422
      4          7           0       -3.135268   -0.113894   -0.217567
      5          8           0       -1.945615    0.137682    0.556516
      6          6           0       -0.789851   -0.039299   -0.253801
      7          6           0       -0.211756   -1.457175   -0.025490
      8          6           0        1.087549   -1.672847   -0.738589
      9          6           0        2.183479   -2.260910   -0.229522
     10          7           0        3.399558   -1.839122   -0.768818
     11          6           0        4.295157   -1.502169    0.071647
     12          7           0        4.824573   -0.205390   -0.167557
     13          6           0        4.389127    0.514480    0.801267
     14          6           0        3.767008    1.826772    0.560772
     15          7           0        2.534923    1.646762    0.433979
     16          6           0        1.385530    1.267094    0.227305
     17          6           0        0.090104    1.186649   -0.014854
     18          8           0       -0.565092    2.407234   -0.042910
     19          8           0       -1.513423    2.447185   -1.152060
     20          1           0       -7.472153   -0.705224   -0.190364
     21          1           0       -6.653498    0.051182    1.281675
     22          1           0       -5.313248   -1.550569   -0.977176
     23          1           0       -3.642818   -1.747136    0.950368
     24          1           0       -4.248432   -0.218705    1.610409
     25          1           0       -3.491573    0.822958   -0.413040
     26          1           0       -1.101078    0.029472   -1.302408
     27          1           0       -1.006300   -2.128142   -0.380389
     28          1           0       -0.104786   -1.630984    1.050016
     29          1           0        1.220481   -1.160262   -1.688488
     30          1           0        2.164771   -2.782779    0.733125
     31          1           0        4.378512   -1.902170    1.099974
     32          1           0        4.111154    0.090342    1.784411
     33          1           0       -1.034690    3.029352   -1.761150
 ---------------------------------------------------------------------

 SCF Done:  E(RB3LYP) =  -909.987840070     A.U. after    1 cycles

 The electronic state is 1-A.
 Alpha  occ. eigenvalues --  -19.23192 -19.21646 -19.17120 -14.42832 -14.37141
 Alpha  occ. eigenvalues --  -14.34837 -14.32408 -10.28055 -10.26488 -10.26302
 Alpha  occ. eigenvalues --  -10.25616 -10.25457 -10.24500 -10.21932 -10.21626
 Alpha  occ. eigenvalues --  -10.19885 -10.19598 -10.18798 -10.18741  -1.14468
 Alpha  occ. eigenvalues --   -1.06931  -1.01018  -0.97617  -0.95102  -0.90759
 Alpha  occ. eigenvalues --   -0.86950  -0.80830  -0.80155  -0.77293  -0.73618
 Alpha  occ. eigenvalues --   -0.71644  -0.66621  -0.64667  -0.63655  -0.58891
 Alpha  occ. eigenvalues --   -0.56977  -0.56631  -0.55246  -0.53463  -0.51842
 Alpha  occ. eigenvalues --   -0.51173  -0.50212  -0.49674  -0.48280  -0.46807
 Alpha  occ. eigenvalues --   -0.46492  -0.44465  -0.44263  -0.43655  -0.43450
 Alpha  occ. eigenvalues --   -0.42522  -0.41488  -0.40471  -0.39226  -0.38872
 Alpha  occ. eigenvalues --   -0.36992  -0.35911  -0.35234  -0.33686  -0.32553
 Alpha  occ. eigenvalues --   -0.31993  -0.29276  -0.28712  -0.27213  -0.25880
 Alpha  occ. eigenvalues --   -0.25044  -0.24178  -0.22893  -0.21387
 Alpha virt. eigenvalues --   -0.07471  -0.05431  -0.02976  -0.02403   0.00308
 Alpha virt. eigenvalues --    0.01204   0.02871   0.06888   0.07986   0.09681
 Alpha virt. eigenvalues --    0.10103   0.11025   0.12067   0.12374   0.12706

 Mulliken charges:
               1
     1  C   -0.307188
     2  C    0.006689
     3  C   -0.151280
     4  N   -0.214457
     5  O   -0.282121
     6  C    0.053661
     7  C   -0.286495
     8  C   -0.045151
     9  C   -0.072252
    10  N   -0.111927
    11  C   -0.042256
    12  N   -0.130885
    13  C    0.006104
    14  C   -0.152891
    15  N   -0.108131
    16  C    0.296808
    17  C    0.191200
    18  O   -0.183746
    19  O   -0.326917
    20  H    0.118918
    21  H    0.111964
    22  H    0.101688
    23  H    0.117749
    24  H    0.102358
    25  H    0.246737
    26  H    0.120591
    27  H    0.124627
    28  H    0.111476
    29  H    0.102862
    30  H    0.084859
    31  H    0.090769
    32  H    0.104800
    33  H    0.321835
 Sum of Mulliken charges =  -0.00000

 Dipole moment (field-independent basis, Debye):
    X=             -3.0883    Y=             -0.5434    Z=              1.1550  Tot=              3.3417
 Quadrupole moment (field-independent basis, Debye-Ang):
   XX=           -113.9616   YY=           -108.7495   ZZ=           -105.3977
   XY=             -4.8168   XZ=             12.3851   YZ=             -8.9633

  Exact polarizability: 305.614  -2.932 153.073  21.592   2.166 122.124
 Approx polarizability: 509.003  16.924 244.247  54.546  19.444 218.855

                      1                      2                      3
                      A                      A                      A
 Frequencies --     14.2225                30.8698                49.2566
 Red. masses --      5.5519                 5.5622                 2.1940
 Frc consts  --      0.0007                 0.0031                 0.0031
 IR Inten    --      0.2747                 0.2431                 0.2071

                      4                      5                      6
                      A                      A                      A
 Frequencies --     60.6876                81.7500                91.3013
 Red. masses --      6.3352                 4.5019                 3.6872
 Frc consts  --      0.0137                 0.0177                 0.0181
 IR Inten    --      6.4540                 1.4292                 2.3886

                      7                      8                      9
                      A                      A                      A
 Frequencies --     98.6397               116.8451               130.5431
 Red. masses --      4.1317                 6.2455                 6.8568
 Frc consts  --      0.0237                 0.0502                 0.0688
 IR Inten    --      0.1517                 1.0181                 3.6798

                     10                     11                     12
                      A                      A                      A
 Frequencies --    167.7222               178.6359               187.1777
 Red. masses --      4.5646                 4.0055                 4.1826
 Frc consts  --      0.0757                 0.0753                 0.0863
 IR Inten    --      3.9239                 0.3091                 4.4097

                     13                     14                     15
                      A                      A                      A
 Frequencies --    202.7688               222.5297               235.5403
 Red. masses --      2.8776                 2.6988                 1.7271
 Frc consts  --      0.0697                 0.0787                 0.0565
 IR Inten    --      5.3717                 0.4458                89.8597

                     16                     17                     18
                      A                      A                      A
 Frequencies --    238.6779               270.3029               287.0952
 Red. masses --      1.9023                 4.6513                 5.2940
 Frc consts  --      0.0638                 0.2002                 0.2571
 IR Inten    --     40.7845                 9.8430                 4.4904

                     19                     20                     21
                      A                      A                      A
 Frequencies --    312.1154               346.0987               359.5692
 Red. masses --      4.1857                 3.2773                 4.5267
 Frc consts  --      0.2402                 0.2313                 0.3448
 IR Inten    --      2.6254                 4.8003                 2.9377

                     22                     23                     24
                      A                      A                      A
 Frequencies --    391.1602               393.5291               443.6191
 Red. masses --      4.4282                 5.7728                 2.6225
 Frc consts  --      0.3992                 0.5267                 0.3041
 IR Inten    --     20.4950                19.8071                 0.9360

                     25                     26                     27
                      A                      A                      A
 Frequencies --    449.4733               479.7662               502.5910
 Red. masses --      4.3710                10.7293                 7.2860
 Frc consts  --      0.5203                 1.4551                 1.0844
 IR Inten    --      1.6874                 1.0436                18.1437

                     28                     29                     30
                      A                      A                      A
 Frequencies --    531.9402               551.4814               568.3914
 Red. masses --      5.5329                 5.3781                 6.6768
 Frc consts  --      0.9224                 0.9637                 1.2709
 IR Inten    --     14.4325                 8.1060                17.8832

                     31                     32                     33
                      A                      A                      A
 Frequencies --    592.7520               637.3861               649.6537
 Red. masses --      4.5673                 3.8335                 2.2741
 Frc consts  --      0.9455                 0.9176                 0.5655
 IR Inten    --      5.7015                13.8639                 8.4546

                     34                     35                     36
                      A                      A                      A
 Frequencies --    664.9773               734.3599               838.8771
 Red. masses --      4.3465                 2.9522                 1.7563
 Frc consts  --      1.1324                 0.9380                 0.7282
 IR Inten    --      2.0365                 4.1759                37.9144

                     37                     38                     39
                      A                      A                      A
 Frequencies --    864.8345               915.7521               931.6432
 Red. masses --     14.1490                 2.0184                 1.6969
 Frc consts  --      6.2351                 0.9973                 0.8678
 IR Inten    --     16.0781                49.4234               121.3897

                     40                     41                     42
                      A                      A                      A
 Frequencies --    937.4743               946.4133               958.9114
 Red. masses --      1.5359                 2.0836                 2.2624
 Frc consts  --      0.7953                 1.0996                 1.2257
 IR Inten    --     33.9816                16.4071                29.1598

                     43                     44                     45
                      A                      A                      A
 Frequencies --    966.7375               979.2521               986.3705
 Red. masses --      1.3644                 1.4330                 1.4930
 Frc consts  --      0.7513                 0.8096                 0.8558
 IR Inten    --     24.0757                 3.8418                38.8618

                     46                     47                     48
                      A                      A                      A
 Frequencies --   1009.1022              1017.2385              1038.6329
 Red. masses --      2.8662                 4.0345                 1.3476
 Frc consts  --      1.7196                 2.4597                 0.8565
 IR Inten    --     24.7210                55.3683                15.9350

                     49                     50                     51
                      A                      A                      A
 Frequencies --   1048.8946              1069.5498              1075.9527
 Red. masses --      2.3304                 4.7136                 3.4253
 Frc consts  --      1.5106                 3.1769                 2.3364
 IR Inten    --     66.6138                88.9878               109.0631

                     52                     53                     54
                      A                      A                      A
 Frequencies --   1105.2471              1119.0581              1121.7155
 Red. masses --      2.7826                 2.8484                 4.4543
 Frc consts  --      2.0027                 2.1016                 3.3021
 IR Inten    --      6.3862                10.0441                17.6515

                     55                     56                     57
                      A                      A                      A
 Frequencies --   1140.2494              1177.7752              1192.0398
 Red. masses --      4.4500                 2.0116                 1.9361
 Frc consts  --      3.4089                 1.6441                 1.6209
 IR Inten    --     22.5631                 3.7889                 4.2695

                     58                     59                     60
                      A                      A                      A
 Frequencies --   1215.3881              1271.7172              1281.4618
 Red. masses --      2.0514                 1.2326                 1.2442
 Frc consts  --      1.7854                 1.1745                 1.2038
 IR Inten    --     15.8692                 2.2476                23.2533

                     61                     62                     63
                      A                      A                      A
 Frequencies --   1316.2078              1320.1157              1323.0213
 Red. masses --      1.2483                 1.2240                 1.2642
 Frc consts  --      1.2741                 1.2568                 1.3038
 IR Inten    --      6.4594                 8.9084                 6.4395

                     64                     65                     66
                      A                      A                      A
 Frequencies --   1341.4637              1348.7965              1352.3358
 Red. masses --      1.3311                 1.2876                 1.3437
 Frc consts  --      1.4113                 1.3801                 1.4478
 IR Inten    --     10.9332                22.2714                 4.2713

                     67                     68                     69
                      A                      A                      A
 Frequencies --   1360.9592              1365.6515              1381.3232
 Red. masses --      1.2823                 1.1195                 1.4136
 Frc consts  --      1.3994                 1.2301                 1.5892
 IR Inten    --     10.1601                33.9230                 4.9984

                     70                     71                     72
                      A                      A                      A
 Frequencies --   1457.3908              1467.8967              1479.6652
 Red. masses --      1.1761                 1.1393                 1.0893
 Frc consts  --      1.4718                 1.4463                 1.4052
 IR Inten    --      3.4393                37.5865                 4.0685

                     73                     74                     75
                      A                      A                      A
 Frequencies --   1507.8808              1561.3387              1635.1309
 Red. masses --      1.0881                 8.3043                 8.1157
 Frc consts  --      1.4576                11.9274                12.7844
 IR Inten    --      5.1141               138.1660               120.5148

                     76                     77                     78
                      A                      A                      A
 Frequencies --   1680.9872              1683.2797              1718.7928
 Red. masses --     10.2147                 6.2980                 4.8475
 Frc consts  --     17.0061                10.5139                 8.4376
 IR Inten    --     18.6797                 2.0203                 2.6533

                     79                     80                     81
                      A                      A                      A
 Frequencies --   2105.2928              2919.8779              2927.9107
 Red. masses --     12.4508                 1.0844                 1.0803
 Frc consts  --     32.5141                 5.4471                 5.4562
 IR Inten    --    133.3432                14.8702               112.2951

                     82                     83                     84
                      A                      A                      A
 Frequencies --   2998.2968              3009.7384              3042.1079
 Red. masses --      1.0622                 1.0665                 1.0807
 Frc consts  --      5.6263                 5.6919                 5.8926
 IR Inten    --     37.6786                33.2636                 8.1633

                     85                     86                     87
                      A                      A                      A
 Frequencies --   3050.0232              3061.7958              3079.1395
 Red. masses --      1.0984                 1.0887                 1.0943
 Frc consts  --      6.0201                 6.0132                 6.1131
 IR Inten    --     19.4839                38.2372                16.2045

                     88                     89                     90
                      A                      A                      A
 Frequencies --   3141.6211              3155.2472              3158.3186
 Red. masses --      1.0596                 1.0915                 1.0867
 Frc consts  --      6.1618                 6.4023                 6.3866
 IR Inten    --     10.2927                 7.1952                 6.3976

                     91                     92                     93
                      A                      A                      A
 Frequencies --   3226.9070              3438.4579              3743.0275
 Red. masses --      1.1144                 1.0756                 1.0686
 Frc consts  --      6.8370                 7.4922                 8.8206
 IR Inten    --     14.2373                 1.3039                51.3071

 - Thermochemistry -
 -------------------
 Temperature   298.150 Kelvin.  Pressure   1.00000 Atm.
 Atom     1 has atomic number  6 and mass  12.00000

 Molecular mass:   262.10659 amu.
 Principal axes and moments of inertia in atomic units:
                           1         2         3
     Eigenvalues --  2304.83163********************
           X            1.00000   0.00097   0.00154
           Y           -0.00094   0.99982  -0.01885
           Z           -0.00156   0.01885   0.99982
 This molecule is an asymmetric top.
 Rotational symmetry number  1.
 Warning -- assumption of classical behavior for rotation
           may cause significant error
 Rotational temperatures (Kelvin)      0.03758     0.00833     0.00717
 Rotational constants (GHZ):           0.78303     0.17367     0.14933
 Zero-point vibrational energy     657011.3 (Joules/Mol)
                                  157.02948 (Kcal/Mol)
 Warning -- explicit consideration of  31 degrees of freedom as
           vibrations may cause significant error
 Vibrational temperatures:     20.46    44.41    70.87    87.32   117.62
          (Kelvin)            131.36   141.92   168.11   187.82   241.31
                              257.02   269.31   291.74   320.17   338.89
                              343.40   388.91   413.07   449.06   497.96
                              517.34   562.79   566.20   638.27   646.69
                              690.28   723.12   765.34   793.46   817.79
                              852.84   917.06   934.71   956.75  1056.58
                             1206.96  1244.30  1317.56  1340.43  1348.82
                             1361.68  1379.66  1390.92  1408.93  1419.17
                             1451.87  1463.58  1494.36  1509.13  1538.84
                             1548.06  1590.20  1610.08  1613.90  1640.56
                             1694.56  1715.08  1748.67  1829.72  1843.74
                             1893.73  1899.35  1903.53  1930.07  1940.62
                             1945.71  1958.12  1964.87  1987.42  2096.86
                             2111.98  2128.91  2169.50  2246.42  2352.59
                             2418.57  2421.86  2472.96  3029.05  4201.05
                             4212.61  4313.88  4330.34  4376.91  4388.30
                             4405.24  4430.19  4520.09  4539.70  4544.12
                             4642.80  4947.17  5385.38

 Zero-point correction=                           0.250242 (Hartree/Particle)
 Thermal correction to Energy=                    0.269872
 Thermal correction to Enthalpy=                  0.270816
 Thermal correction to Gibbs Free Energy=         0.200313
 Sum of electronic and zero-point Energies=           -909.737598
 Sum of electronic and thermal Energies=              -909.717968
 Sum of electronic and thermal Enthalpies=            -909.717024
 Sum of electronic and thermal Free Energies=         -909.787527

                     E (Thermal)             CV                S
                      KCal/Mol        Cal/Mol-Kelvin    Cal/Mol-Kelvin
 Total                  169.347             71.189            148.386
 Electronic               0.000              0.000              0.000
 Translational            0.889              2.981             42.590
 Rotational               0.889              2.981             34.025
 Vibrational            167.570             65.227             71.770
 Vibration     1          0.593              1.986              7.311
 Vibration     2          0.594              1.984              5.773
 Vibration     3          0.595              1.978              4.847
 Vibration     4          0.597              1.973              4.435
 Vibration     5          0.600              1.962              3.848
 Vibration     6          0.602              1.955              3.632
 Vibration     7          0.604              1.950              3.481
 Vibration     8          0.608              1.935              3.152
 Vibration     9          0.612              1.923              2.938
 Vibration    10          0.624              1.882              2.461
 Vibration    11          0.629              1.869              2.343
 Vibration    12          0.632              1.857              2.256
 Vibration    13          0.639              1.836              2.108
 Vibration    14          0.648              1.807              1.938
 Vibration    15          0.655              1.786              1.836
 Vibration    16          0.657              1.781              1.813
 Vibration    17          0.674              1.728              1.594
 Vibration    18          0.684              1.698              1.491
 Vibration    19          0.700              1.651              1.351
 Vibration    20          0.724              1.583              1.184
 Vibration    21          0.734              1.556              1.124
 Vibration    22          0.759              1.489              0.996
 Vibration    23          0.761              1.484              0.987
 Vibration    24          0.803              1.375              0.815
 Vibration    25          0.808              1.362              0.797
 Vibration    26          0.836              1.295              0.711
 Vibration    27          0.858              1.244              0.652
 Vibration    28          0.887              1.179              0.583
 Vibration    29          0.907              1.136              0.541
 Vibration    30          0.924              1.100              0.507
 Vibration    31          0.950              1.047              0.462

                           ! Non-Optimized Parameters !
 Normal termination of Gaussian 16 at Thu May 18 07:55:54 2023.
