 Gaussian 16, Revision A.03,
 Gaussian 16:  ES64L-G16RevA.03 25-Dec-2016

 -----------------------------
 # opt freq b3lyp/6-31g(2df,p)
 -----------------------------

 -------------------
 Title Card Required
 -------------------
 Symbolic Z-matrix:
 Charge =  0 Multiplicity = 1

 SCF Done:  E(RB3LYP) =  -1425.43519366     A.U. after   24 cycles
 SCF Done:  E(RB3LYP) =  -1425.49266444     A.U. after   15 cycles
 SCF Done:  E(RB3LYP) =  -1425.53875106     A.U. after   15 cycles
 SCF Done:  E(RB3LYP) =  -1425.56472735     A.U. after   14 cycles
 SCF Done:  E(RB3LYP) =  -1425.57404210     A.U. after   14 cycles
 SCF Done:  E(RB3LYP) =  -1425.57790813     A.U. after   14 cycles
 SCF Done:  E(RB3LYP) =  -1425.58049919     A.U. after   13 cycles
 SCF Done:  E(RB3LYP) =  -1425.58178480     A.U. after   13 cycles
 SCF Done:  E(RB3LYP) =  -1425.58273310     A.U. after   12 cycles
 SCF Done:  E(RB3LYP) =  -1425.58313702     A.U. after   12 cycles
 SCF Done:  E(RB3LYP) =  -1425.58336171     A.U. after   11 cycles
 SCF Done:  E(RB3LYP) =  -1425.58345563     A.U. after   11 cycles
 SCF Done:  E(RB3LYP) =  -1425.58355566     A.U. after   11 cycles
 SCF Done:  E(RB3LYP) =  -1425.58358324     A.U. after   10 cycles
 SCF Done:  E(RB3LYP) =  -1425.58358900     A.U. after   10 cycles
 SCF Done:  E(RB3LYP) =  -1425.58358946     A.U. after    7 cycles
 SCF Done:  E(RB3LYP) =  -1425.58358953     A.U. after    7 cycles
 Optimization completed.
    -- Stationary point found.
 Normal termination of Gaussian 16 at Fri May 19 03:37:34 2023.

 ----------------------------------------------------------------------
 #N Geom=AllCheck Guess=TCheck SCRF=Check GenChk RB3LYP/6-31G(2df,p) Fr
 eq
 ----------------------------------------------------------------------

 Structure from the checkpoint file:  "CdCC1dCdC2CdCqNrCCNSC2dCCdNS1.chk"
 -------------------
 Title Card Required
 -------------------
 Charge =  0 Multiplicity = 1

                         Standard orientation:
 ---------------------------------------------------------------------
 Center     Atomic      Atomic             Coordinates (Angstroms)
 Number     Number       Type             X           Y           Z
 ---------------------------------------------------------------------
      1          6           0       -3.958346    1.150237    1.924480
      2          6           0       -2.692742    1.338289    1.540888
      3          6           0       -2.109916    1.065695    0.222923
      4          6           0       -0.817518    1.188459   -0.018757
      5          6           0        0.434321    0.783508   -0.242327
      6          6           0        1.613107    1.600297   -0.419678
      7          6           0        2.885921    1.181016   -0.620591
      8          7           0        3.951158    2.075880   -0.621020
      9          6           0        3.297048   -0.264707   -0.708360
     10          6           0        3.495259   -0.927237    0.677762
     11          7           0        2.326669   -0.953599    1.556065
     12         16           0        0.934003   -1.751518    1.015561
     13          6           0        0.310323   -0.728743   -0.301394
     14          6           0       -0.630909   -1.092937   -1.205399
     15          6           0       -1.805660   -1.952138   -1.074650
     16          7           0       -2.963326   -1.395851   -0.997082
     17         16           0       -3.220043    0.334953   -1.054687
     18          1           0       -4.267429    1.393182    2.934745
     19          1           0       -4.709639    0.750508    1.254453
     20          1           0       -1.979471    1.749937    2.252344
     21          1           0        1.436421    2.671495   -0.352674
     22          1           0        3.702200    3.052357   -0.697291
     23          1           0        4.724241    1.832236   -1.223682
     24          1           0        4.244102   -0.347985   -1.256134
     25          1           0        2.555964   -0.833365   -1.274552
     26          1           0        4.287045   -0.401007    1.222885
     27          1           0        3.824517   -1.960258    0.527767
     28          1           0        2.109288   -0.046202    1.950822
     29          1           0       -0.889471   -0.288699   -1.893166
     30          1           0       -1.787962   -3.042601   -1.034628
 ---------------------------------------------------------------------

 SCF Done:  E(RB3LYP) =  -1425.58358953     A.U. after    1 cycles

 The electronic state is 1-A.
 Alpha  occ. eigenvalues --  -88.90827 -88.89364 -14.35538 -14.35448 -14.35130
 Alpha  occ. eigenvalues --  -10.24100 -10.23812 -10.23123 -10.22921 -10.22031
 Alpha  occ. eigenvalues --  -10.22019 -10.20248 -10.19999 -10.18972 -10.18896
 Alpha  occ. eigenvalues --  -10.18485 -10.17177  -7.96646  -7.95142  -5.93237
 Alpha  occ. eigenvalues --   -5.92775  -5.92179  -5.91754  -5.91287  -5.90635
 Alpha  occ. eigenvalues --   -0.93817  -0.92666  -0.92333  -0.85299  -0.81033
 Alpha  occ. eigenvalues --   -0.79330  -0.75421  -0.73980  -0.72239  -0.68590
 Alpha  occ. eigenvalues --   -0.68450  -0.63258  -0.59688  -0.58279  -0.55338
 Alpha  occ. eigenvalues --   -0.54978  -0.52615  -0.51865  -0.49824  -0.49149
 Alpha  occ. eigenvalues --   -0.47209  -0.45854  -0.45367  -0.44967  -0.43527
 Alpha  occ. eigenvalues --   -0.42247  -0.41564  -0.41182  -0.38388  -0.37202
 Alpha  occ. eigenvalues --   -0.36502  -0.36145  -0.35493  -0.34210  -0.32349
 Alpha  occ. eigenvalues --   -0.31992  -0.29377  -0.29180  -0.28264  -0.25749
 Alpha  occ. eigenvalues --   -0.23541  -0.22811  -0.20239  -0.18894
 Alpha virt. eigenvalues --   -0.06025  -0.03437  -0.01748   0.00121   0.02133
 Alpha virt. eigenvalues --    0.02729   0.05863   0.06961   0.07945   0.09657
 Alpha virt. eigenvalues --    0.10054   0.10440   0.11452   0.12434   0.12519

 Mulliken charges:
               1
     1  C   -0.327378
     2  C   -0.030936
     3  C   -0.019709
     4  C    0.104577
     5  C    0.069814
     6  C   -0.253296
     7  C    0.298085
     8  N   -0.555930
     9  C   -0.318069
    10  C   -0.142480
    11  N   -0.273665
    12  S   -0.080310
    13  C    0.093112
    14  C   -0.226453
    15  C   -0.005260
    16  N   -0.180316
    17  S   -0.079324
    18  H    0.110997
    19  H    0.136970
    20  H    0.090388
    21  H    0.073532
    22  H    0.250418
    23  H    0.249766
    24  H    0.093660
    25  H    0.144216
    26  H    0.119411
    27  H    0.124843
    28  H    0.255406
    29  H    0.145843
    30  H    0.132089
 Sum of Mulliken charges =  -0.00000

 Dipole moment (field-independent basis, Debye):
    X=              5.8955    Y=              2.0119    Z=             -0.6406  Tot=              6.2622
 Quadrupole moment (field-independent basis, Debye-Ang):
   XX=           -106.5630   YY=           -108.1911   ZZ=           -113.0972
   XY=              5.7816   XZ=             -9.7733   YZ=              2.1583

  Exact polarizability: 320.750   3.947 163.640 -13.104   8.684 144.703
 Approx polarizability: 540.484   8.554 283.153  -9.185  21.397 253.215

                      1                      2                      3
                      A                      A                      A
 Frequencies --     45.2685                58.6422                70.9618
 Red. masses --      4.6883                 5.5099                 4.7078
 Frc consts  --      0.0057                 0.0112                 0.0140
 IR Inten    --      0.3305                 0.6182                 0.6065

                      4                      5                      6
                      A                      A                      A
 Frequencies --     83.8976               127.0626               139.7266
 Red. masses --      6.2878                 2.6019                 6.4032
 Frc consts  --      0.0261                 0.0247                 0.0737
 IR Inten    --      1.2311                 0.4238                 0.0120

                      7                      8                      9
                      A                      A                      A
 Frequencies --    166.0866               172.7434               210.8615
 Red. masses --      4.7641                 4.3580                 4.0958
 Frc consts  --      0.0774                 0.0766                 0.1073
 IR Inten    --      0.6612                 3.8650                 0.6257

                     10                     11                     12
                      A                      A                      A
 Frequencies --    228.5009               262.3848               279.3142
 Red. masses --      4.3804                 4.8489                 7.2388
 Frc consts  --      0.1348                 0.1967                 0.3327
 IR Inten    --      3.3304                 2.1527                 3.9747

                     13                     14                     15
                      A                      A                      A
 Frequencies --    313.2670               327.6388               332.3941
 Red. masses --      2.5359                 2.6626                 4.6802
 Frc consts  --      0.1466                 0.1684                 0.3047
 IR Inten    --     12.1233                 4.1262                 1.3832

                     16                     17                     18
                      A                      A                      A
 Frequencies --    376.5267               396.0130               429.7631
 Red. masses --      2.1668                 1.6870                 5.6535
 Frc consts  --      0.1810                 0.1559                 0.6152
 IR Inten    --     13.2696                86.7686                10.0779

                     19                     20                     21
                      A                      A                      A
 Frequencies --    453.8939               467.4243               487.9134
 Red. masses --      4.5752                 3.3376                 3.0285
 Frc consts  --      0.5553                 0.4296                 0.4248
 IR Inten    --      1.3381                 0.3750                19.0205

                     22                     23                     24
                      A                      A                      A
 Frequencies --    500.0798               503.1504               534.4641
 Red. masses --      3.3279                 4.5591                 4.3151
 Frc consts  --      0.4903                 0.6800                 0.7262
 IR Inten    --     15.6532                 8.9927                 7.9602

                     25                     26                     27
                      A                      A                      A
 Frequencies --    538.3012               564.7304               594.1648
 Red. masses --      7.6059                 2.1254                 4.6486
 Frc consts  --      1.2985                 0.3994                 0.9669
 IR Inten    --     37.1004                68.0676                 2.1694

                     28                     29                     30
                      A                      A                      A
 Frequencies --    604.8379               622.7621               642.6757
 Red. masses --      1.7211                 3.3183                 5.5499
 Frc consts  --      0.3710                 0.7582                 1.3506
 IR Inten    --    340.6922                37.2977                 4.6530

                     31                     32                     33
                      A                      A                      A
 Frequencies --    668.2304               683.6775               707.0299
 Red. masses --      4.1478                 3.8600                 3.0685
 Frc consts  --      1.0912                 1.0630                 0.9038
 IR Inten    --    151.2746                 4.6333                 9.9873

                     34                     35                     36
                      A                      A                      A
 Frequencies --    736.5696               771.0284               827.8429
 Red. masses --      3.0663                 2.1456                 2.6883
 Frc consts  --      0.9801                 0.7515                 1.0855
 IR Inten    --     25.3030                 2.5044                26.9907

                     37                     38                     39
                      A                      A                      A
 Frequencies --    868.2529               876.7936               898.8957
 Red. masses --      1.5148                 1.7460                 2.1315
 Frc consts  --      0.6728                 0.7908                 1.0147
 IR Inten    --     17.1468                48.5082                 9.5028

                     40                     41                     42
                      A                      A                      A
 Frequencies --    924.9702               934.3165               941.7398
 Red. masses --      2.2800                 1.4990                 1.3746
 Frc consts  --      1.1493                 0.7710                 0.7183
 IR Inten    --     14.5885                52.4829                27.6342

                     43                     44                     45
                      A                      A                      A
 Frequencies --    968.6181               994.2454              1028.0781
 Red. masses --      2.5159                 2.3815                 1.1087
 Frc consts  --      1.3907                 1.3871                 0.6905
 IR Inten    --     11.1973                 5.7130                10.3689

                     46                     47                     48
                      A                      A                      A
 Frequencies --   1049.0471              1090.4110              1104.0637
 Red. masses --      1.9503                 4.4252                 4.9192
 Frc consts  --      1.2646                 3.1000                 3.5329
 IR Inten    --      0.9516                15.6851                20.0212

                     49                     50                     51
                      A                      A                      A
 Frequencies --   1124.4290              1137.9745              1183.5866
 Red. masses --      1.5177                 2.2944                 2.1748
 Frc consts  --      1.1305                 1.7506                 1.7950
 IR Inten    --      4.4118                10.3528                20.9831

                     52                     53                     54
                      A                      A                      A
 Frequencies --   1218.8661              1260.2648              1280.0336
 Red. masses --      1.8039                 1.2121                 1.8012
 Frc consts  --      1.5790                 1.1342                 1.7389
 IR Inten    --     18.2264                38.5771                80.4120

                     55                     56                     57
                      A                      A                      A
 Frequencies --   1317.7517              1326.3669              1345.5867
 Red. masses --      1.2437                 1.2806                 1.3300
 Frc consts  --      1.2724                 1.3274                 1.4188
 IR Inten    --      6.6494                 4.1436                 2.1300

                     58                     59                     60
                      A                      A                      A
 Frequencies --   1355.5573              1384.3992              1390.5359
 Red. masses --      1.8764                 1.7084                 1.2134
 Frc consts  --      2.0315                 1.9292                 1.3823
 IR Inten    --     18.9684                 5.2047                15.8597

                     61                     62                     63
                      A                      A                      A
 Frequencies --   1427.5281              1441.3391              1447.7325
 Red. masses --      1.6134                 1.1603                 1.5426
 Frc consts  --      1.9371                 1.4202                 1.9049
 IR Inten    --     21.4511                 6.2500                 0.3409

                     64                     65                     66
                      A                      A                      A
 Frequencies --   1474.3928              1490.7508              1564.5555
 Red. masses --      1.0916                 1.1634                10.2028
 Frc consts  --      1.3980                 1.5233                14.7147
 IR Inten    --      1.7932                 9.0156                 8.3885

                     67                     68                     69
                      A                      A                      A
 Frequencies --   1575.0560              1647.7360              1674.2217
 Red. masses --      6.2587                 1.2490                 4.4426
 Frc consts  --      9.1481                 1.9979                 7.3369
 IR Inten    --     38.6839                21.8389                 9.6759

                     70                     71                     72
                      A                      A                      A
 Frequencies --   1689.4559              1872.9384              3029.8737
 Red. masses --      4.5186                11.8609                 1.0671
 Frc consts  --      7.5989                24.5141                 5.7716
 IR Inten    --    364.1123                14.0236                25.4762

                     73                     74                     75
                      A                      A                      A
 Frequencies --   3041.9523              3087.9047              3103.3438
 Red. masses --      1.0600                 1.1036                 1.0833
 Frc consts  --      5.7792                 6.1998                 6.1471
 IR Inten    --     68.3735                12.0579                 9.6477

                     76                     77                     78
                      A                      A                      A
 Frequencies --   3107.2426              3111.0188              3143.3613
 Red. masses --      1.0958                 1.0875                 1.0805
 Frc consts  --      6.2337                 6.2011                 6.2902
 IR Inten    --     16.6268                17.8262                 5.0668

                     79                     80                     81
                      A                      A                      A
 Frequencies --   3144.6568              3165.1095              3251.9048
 Red. masses --      1.0872                 1.0681                 1.1149
 Frc consts  --      6.3345                 6.3042                 6.9464
 IR Inten    --     24.5545                 7.0470                 5.9196

                     82                     83                     84
                      A                      A                      A
 Frequencies --   3549.3142              3550.5080              3653.8966
 Red. masses --      1.0750                 1.0466                 1.0984
 Frc consts  --      7.9788                 7.7736                 8.6403
 IR Inten    --      6.1622                27.4001                 8.1951

 - Thermochemistry -
 -------------------
 Temperature   298.150 Kelvin.  Pressure   1.00000 Atm.
 Atom     1 has atomic number  6 and mass  12.00000

 Molecular mass:   263.05509 amu.
 Principal axes and moments of inertia in atomic units:
                           1         2         3
     Eigenvalues --  2569.100007124.555647715.67595
           X            0.99984   0.00375  -0.01723
           Y           -0.00301   0.99907   0.04294
           Z            0.01738  -0.04288   0.99893
 This molecule is an asymmetric top.
 Rotational symmetry number  1.
 Warning -- assumption of classical behavior for rotation
           may cause significant error
 Rotational temperatures (Kelvin)      0.03371     0.01216     0.01123
 Rotational constants (GHZ):           0.70248     0.25331     0.23391
 Zero-point vibrational energy     605193.2 (Joules/Mol)
                                  144.64466 (Kcal/Mol)
 Warning -- explicit consideration of  28 degrees of freedom as
           vibrations may cause significant error
 Vibrational temperatures:     65.13    84.37   102.10   120.71   182.81
          (Kelvin)            201.04   238.96   248.54   303.38   328.76
                              377.51   401.87   450.72   471.40   478.24
                              541.74   569.77   618.33   653.05   672.52
                              702.00   719.50   723.92   768.97   774.50
                              812.52   854.87   870.23   896.02   924.67
                              961.43   983.66  1017.26  1059.76  1109.34
                             1191.08  1249.22  1261.51  1293.31  1330.83
                             1344.27  1354.95  1393.63  1430.50  1479.18
                             1509.34  1568.86  1588.50  1617.80  1637.29
                             1702.92  1753.68  1813.24  1841.68  1895.95
                             1908.35  1936.00  1950.34  1991.84  2000.67
                             2053.89  2073.77  2082.96  2121.32  2144.86
                             2251.05  2266.15  2370.72  2408.83  2430.75
                             2694.74  4359.31  4376.69  4442.81  4465.02
                             4470.63  4476.06  4522.60  4524.46  4553.89
                             4678.77  5106.67  5108.39  5257.14

 Zero-point correction=                           0.230506 (Hartree/Particle)
 Thermal correction to Energy=                    0.246898
 Thermal correction to Enthalpy=                  0.247842
 Thermal correction to Gibbs Free Energy=         0.186912
 Sum of electronic and zero-point Energies=          -1425.353084
 Sum of electronic and thermal Energies=             -1425.336692
 Sum of electronic and thermal Enthalpies=           -1425.335748
 Sum of electronic and thermal Free Energies=        -1425.396678

                     E (Thermal)             CV                S
                      KCal/Mol        Cal/Mol-Kelvin    Cal/Mol-Kelvin
 Total                  154.931             63.989            128.238
 Electronic               0.000              0.000              0.000
 Translational            0.889              2.981             42.601
 Rotational               0.889              2.981             33.312
 Vibrational            153.153             58.028             52.325
 Vibration     1          0.595              1.979              5.014
 Vibration     2          0.596              1.974              4.502
 Vibration     3          0.598              1.968              4.126
 Vibration     4          0.601              1.960              3.798
 Vibration     5          0.611              1.926              2.990
 Vibration     6          0.615              1.914              2.808
 Vibration     7          0.624              1.884              2.479
 Vibration     8          0.626              1.876              2.405
 Vibration     9          0.643              1.824              2.036
 Vibration    10          0.651              1.798              1.891
 Vibration    11          0.670              1.742              1.646
 Vibration    12          0.680              1.712              1.538
 Vibration    13          0.701              1.648              1.345
 Vibration    14          0.711              1.620              1.272
 Vibration    15          0.714              1.611              1.248
 Vibration    16          0.747              1.520              1.053
 Vibration    17          0.763              1.479              0.977
 Vibration    18          0.791              1.405              0.859
 Vibration    19          0.812              1.352              0.784
 Vibration    20          0.825              1.322              0.745
 Vibration    21          0.844              1.277              0.689
 Vibration    22          0.855              1.250              0.658
 Vibration    23          0.858              1.243              0.650
 Vibration    24          0.889              1.174              0.577
 Vibration    25          0.893              1.165              0.569
 Vibration    26          0.921              1.108              0.514
 Vibration    27          0.952              1.044              0.460
 Vibration    28          0.963              1.022              0.441

 Optimization completed.
    -- Stationary point found.
 Normal termination of Gaussian 16 at Fri May 19 06:52:04 2023.
