 Gaussian 16, Revision A.03,
 Gaussian 16:  ES64L-G16RevA.03 25-Dec-2016

 -----------------------------
 # opt freq b3lyp/6-31g(2df,p)
 -----------------------------

 -------------------
 Title Card Required
 -------------------
 Symbolic Z-matrix:
 Charge =  0 Multiplicity = 1

 SCF Done:  E(RB3LYP) =  -862.334242009     A.U. after   20 cycles
 SCF Done:  E(RB3LYP) =  -862.389780947     A.U. after   16 cycles
 SCF Done:  E(RB3LYP) =  -862.445892371     A.U. after   16 cycles
 SCF Done:  E(RB3LYP) =  -862.460714996     A.U. after   14 cycles
 SCF Done:  E(RB3LYP) =  -862.470821164     A.U. after   15 cycles
 SCF Done:  E(RB3LYP) =  -862.472347781     A.U. after   14 cycles
 SCF Done:  E(RB3LYP) =  -862.473963495     A.U. after   14 cycles
 SCF Done:  E(RB3LYP) =  -862.474754332     A.U. after   12 cycles
 SCF Done:  E(RB3LYP) =  -862.475002206     A.U. after   12 cycles
 SCF Done:  E(RB3LYP) =  -862.475133105     A.U. after   12 cycles
 SCF Done:  E(RB3LYP) =  -862.475543722     A.U. after    9 cycles
 SCF Done:  E(RB3LYP) =  -862.475549801     A.U. after   12 cycles
 SCF Done:  E(RB3LYP) =  -862.475550454     A.U. after    9 cycles
 SCF Done:  E(RB3LYP) =  -862.475550853     A.U. after    9 cycles
 SCF Done:  E(RB3LYP) =  -862.475551279     A.U. after    9 cycles
 SCF Done:  E(RB3LYP) =  -862.475551587     A.U. after    9 cycles
 SCF Done:  E(RB3LYP) =  -862.475551856     A.U. after    9 cycles
 SCF Done:  E(RB3LYP) =  -862.475552008     A.U. after    8 cycles
 SCF Done:  E(RB3LYP) =  -862.475552025     A.U. after    7 cycles
 Optimization completed.
    -- Stationary point found.
 Normal termination of Gaussian 16 at Wed May 17 20:09:25 2023.

 ----------------------------------------------------------------------
 #N Geom=AllCheck Guess=TCheck SCRF=Check GenChk RB3LYP/6-31G(2df,p) Fr
 eq
 ----------------------------------------------------------------------

 Structure from the checkpoint file:  "CdCCqdCdC1C2dCqCSrC12rCdCC.chk"
 -------------------
 Title Card Required
 -------------------
 Charge =  0 Multiplicity = 1

                         Standard orientation:
 ---------------------------------------------------------------------
 Center     Atomic      Atomic             Coordinates (Angstroms)
 Number     Number       Type             X           Y           Z
 ---------------------------------------------------------------------
      1          6           0        2.516570    3.181709    0.114166
      2          6           0        3.065789    1.998304   -0.160602
      3          6           0        2.407456    0.676610   -0.055818
      4          6           0        1.091794    0.572632    0.024748
      5          6           0       -0.185146    0.403968    0.103706
      6          6           0       -1.295505    0.338063    1.152689
      7          6           0       -2.161296   -0.369511    0.325443
      8          6           0       -3.487306   -0.997972    0.456221
      9         16           0       -4.840274   -0.067850   -0.394102
     10          6           0       -1.395645    0.248395   -0.692715
     11          6           0        3.299547   -0.500657   -0.052230
     12          6           0        2.929175   -1.783918   -0.092612
     13          6           0        3.871071   -2.946612   -0.075189
     14          1           0        3.078090    4.101574   -0.001800
     15          1           0        1.493261    3.267656    0.465428
     16          1           0        4.103027    1.959913   -0.488363
     17          1           0       -3.743251   -1.138488    1.507272
     18          1           0       -3.496007   -1.976840   -0.032203
     19          1           0       -4.736064    1.047697    0.352595
     20          1           0       -1.761828    0.975623   -1.421337
     21          1           0        4.361845   -0.264312   -0.011131
     22          1           0        1.867208   -2.020569   -0.140982
     23          1           0        4.914761   -2.622127   -0.032186
     24          1           0        3.743831   -3.573755   -0.966879
     25          1           0        3.680499   -3.596848    0.788369
 ---------------------------------------------------------------------

 SCF Done:  E(RB3LYP) =  -862.475552025     A.U. after    1 cycles

 The electronic state is 1-A.
 Alpha  occ. eigenvalues --  -88.88388 -10.24272 -10.24091 -10.22961 -10.22150
 Alpha  occ. eigenvalues --  -10.21310 -10.20908 -10.19216 -10.19161 -10.18836
 Alpha  occ. eigenvalues --  -10.18626 -10.18463 -10.17875  -7.94994  -5.91450
 Alpha  occ. eigenvalues --   -5.91110  -5.90491  -0.92332  -0.83245  -0.80642
 Alpha  occ. eigenvalues --   -0.78052  -0.74545  -0.71255  -0.68313  -0.65105
 Alpha  occ. eigenvalues --   -0.61719  -0.59679  -0.55147  -0.54639  -0.48803
 Alpha  occ. eigenvalues --   -0.48409  -0.46912  -0.45201  -0.43300  -0.42698
 Alpha  occ. eigenvalues --   -0.41492  -0.41348  -0.40627  -0.40035  -0.37802
 Alpha  occ. eigenvalues --   -0.36278  -0.35871  -0.35122  -0.33801  -0.33347
 Alpha  occ. eigenvalues --   -0.26351  -0.25910  -0.23559  -0.23208  -0.20260
 Alpha virt. eigenvalues --   -0.05991  -0.03782  -0.02171   0.01962   0.02547
 Alpha virt. eigenvalues --    0.05818   0.07194   0.10498   0.10874   0.11400
 Alpha virt. eigenvalues --    0.11636   0.12915   0.13730   0.15067   0.15744

 Mulliken charges:
               1
     1  C   -0.348585
     2  C   -0.029309
     3  C   -0.004835
     4  C    0.024368
     5  C    0.180781
     6  C   -0.227108
     7  C    0.252915
     8  C   -0.335378
     9  S   -0.249384
    10  C   -0.196984
    11  C   -0.079715
    12  C   -0.082652
    13  C   -0.426149
    14  H    0.115444
    15  H    0.117986
    16  H    0.093216
    17  H    0.159766
    18  H    0.160931
    19  H    0.173301
    20  H    0.147050
    21  H    0.083775
    22  H    0.091580
    23  H    0.120488
    24  H    0.128384
    25  H    0.130116
 Sum of Mulliken charges =  -0.00000

 Dipole moment (field-independent basis, Debye):
    X=              0.6173    Y=             -1.1699    Z=             -0.8173  Tot=              1.5549
 Quadrupole moment (field-independent basis, Debye-Ang):
   XX=            -80.8593   YY=            -76.6223   ZZ=            -88.8248
   XY=             -0.4449   XZ=             -2.4597   YZ=             -1.9986

  Exact polarizability: 261.645   8.997 161.514  -1.468   1.469  96.394
 Approx polarizability: 355.024  26.901 248.480   1.131   7.670 187.946

                      1                      2                      3
                      A                      A                      A
 Frequencies --     27.5296                34.7618                41.5383
 Red. masses --      4.0096                 2.2978                 3.2291
 Frc consts  --      0.0018                 0.0016                 0.0033
 IR Inten    --      0.1264                 0.2038                 0.3974

                      4                      5                      6
                      A                      A                      A
 Frequencies --     52.6304                82.8486               106.2628
 Red. masses --      2.9955                 3.9264                 3.7621
 Frc consts  --      0.0049                 0.0159                 0.0250
 IR Inten    --      0.6414                 1.3465                 1.8582

                      7                      8                      9
                      A                      A                      A
 Frequencies --    130.6227               145.1038               170.3655
 Red. masses --      2.7531                 3.3669                 5.5499
 Frc consts  --      0.0277                 0.0418                 0.0949
 IR Inten    --      1.3284                 0.9457                 4.8427

                     10                     11                     12
                      A                      A                      A
 Frequencies --    197.8585               231.5189               245.0350
 Red. masses --      1.4902                 2.0289                 1.2218
 Frc consts  --      0.0344                 0.0641                 0.0432
 IR Inten    --      1.3503                 0.9715                21.6655

                     13                     14                     15
                      A                      A                      A
 Frequencies --    309.2265               332.0886               380.3813
 Red. masses --      2.9793                 2.8025                 4.9684
 Frc consts  --      0.1679                 0.1821                 0.4235
 IR Inten    --      2.8519                 6.3406                 4.0489

                     16                     17                     18
                      A                      A                      A
 Frequencies --    404.4631               444.7256               461.1357
 Red. masses --      3.7345                 3.0238                 5.6417
 Frc consts  --      0.3599                 0.3524                 0.7068
 IR Inten    --      2.2651                 0.6951                 1.6980

                     19                     20                     21
                      A                      A                      A
 Frequencies --    504.0878               555.8683               620.0793
 Red. masses --      3.7490                 3.7145                 3.6656
 Frc consts  --      0.5613                 0.6762                 0.8304
 IR Inten    --     10.8607                 7.0346                 7.4982

                     22                     23                     24
                      A                      A                      A
 Frequencies --    669.5278               679.2562               713.2197
 Red. masses --      4.1208                 3.5134                 2.2363
 Frc consts  --      1.0883                 0.9551                 0.6702
 IR Inten    --     11.9363                11.8654                 2.3811

                     25                     26                     27
                      A                      A                      A
 Frequencies --    720.7177               782.0923               794.0067
 Red. masses --      3.4651                 2.1255                 2.7828
 Frc consts  --      1.0605                 0.7660                 1.0337
 IR Inten    --     43.9724                 0.1986                 7.9232

                     28                     29                     30
                      A                      A                      A
 Frequencies --    836.3305               842.1026               930.5795
 Red. masses --      1.9021                 2.3513                 1.8112
 Frc consts  --      0.7838                 0.9824                 0.9241
 IR Inten    --      4.0738                69.3194                 9.5269

                     31                     32                     33
                      A                      A                      A
 Frequencies --    946.1386               954.9432               996.5993
 Red. masses --      1.4024                 2.6015                 2.8226
 Frc consts  --      0.7397                 1.3977                 1.6517
 IR Inten    --     25.3430                 8.5720                20.7969

                     34                     35                     36
                      A                      A                      A
 Frequencies --   1005.9746              1010.2696              1030.2140
 Red. masses --      1.5269                 1.0903                 1.1001
 Frc consts  --      0.9104                 0.6556                 0.6879
 IR Inten    --      9.1038                15.3398                15.1795

                     37                     38                     39
                      A                      A                      A
 Frequencies --   1067.3573              1093.8341              1120.0470
 Red. masses --      1.5408                 1.7659                 2.0262
 Frc consts  --      1.0343                 1.2449                 1.4976
 IR Inten    --      0.6606                 5.4540                 0.9734

                     40                     41                     42
                      A                      A                      A
 Frequencies --   1156.7079              1172.3584              1209.8025
 Red. masses --      3.2265                 1.3928                 1.5529
 Frc consts  --      2.5435                 1.1278                 1.3391
 IR Inten    --      2.6358                 1.5220                 3.8145

                     43                     44                     45
                      A                      A                      A
 Frequencies --   1253.2362              1298.3499              1319.3843
 Red. masses --      1.3228                 1.9384                 1.3344
 Frc consts  --      1.2241                 1.9253                 1.3686
 IR Inten    --     19.8394                11.3359                 3.8833

                     46                     47                     48
                      A                      A                      A
 Frequencies --   1332.0843              1349.5869              1410.9725
 Red. masses --      1.3340                 1.3072                 1.2542
 Frc consts  --      1.3947                 1.4028                 1.4711
 IR Inten    --      0.5329                 8.6614                 2.1624

                     49                     50                     51
                      A                      A                      A
 Frequencies --   1444.8090              1453.7623              1477.0478
 Red. masses --      1.2183                 1.0947                 1.0452
 Frc consts  --      1.4984                 1.3631                 1.3436
 IR Inten    --     11.2805                 3.7122                 4.9485

                     52                     53                     54
                      A                      A                      A
 Frequencies --   1487.5941              1498.1200              1580.4442
 Red. masses --      1.1673                 4.3093                 9.9595
 Frc consts  --      1.5219                 5.6984                14.6571
 IR Inten    --     13.5085                 3.1810                 0.3548

                     55                     56                     57
                      A                      A                      A
 Frequencies --   1681.9554              1712.1515              2041.9844
 Red. masses --      4.6139                 5.6132                11.6164
 Frc consts  --      7.6904                 9.6950                28.5381
 IR Inten    --      2.7223                16.4266                 2.5706

                     58                     59                     60
                      A                      A                      A
 Frequencies --   2677.1777              3015.0776              3060.0567
 Red. masses --      1.0386                 1.0375                 1.0983
 Frc consts  --      4.3858                 5.5568                 6.0596
 IR Inten    --      1.7797                39.9116                18.8260

                     61                     62                     63
                      A                      A                      A
 Frequencies --   3068.1140              3093.8740              3104.7514
 Red. masses --      1.0602                 1.0908                 1.0983
 Frc consts  --      5.8802                 6.1520                 6.2375
 IR Inten    --      6.6488                23.8113                11.9568

                     64                     65                     66
                      A                      A                      A
 Frequencies --   3128.1412              3134.3310              3141.8440
 Red. masses --      1.1035                 1.0884                 1.0817
 Frc consts  --      6.3619                 6.2996                 6.2910
 IR Inten    --      2.2863                 4.7816                 2.9895

                     67                     68                     69
                      A                      A                      A
 Frequencies --   3144.8453              3154.5519              3238.9352
 Red. masses --      1.0816                 1.0729                 1.1153
 Frc consts  --      6.3027                 6.2906                 6.8936
 IR Inten    --     58.6998                 9.3650                 9.1513

 - Thermochemistry -
 -------------------
 Temperature   298.150 Kelvin.  Pressure   1.00000 Atm.
 Atom     1 has atomic number  6 and mass  12.00000

 Molecular mass:   188.06597 amu.
 Principal axes and moments of inertia in atomic units:
                           1         2         3
     Eigenvalues --  1626.506586691.355408048.24857
           X            0.99994  -0.01027  -0.00392
           Y            0.01026   0.99994  -0.00278
           Z            0.00395   0.00274   0.99999
 This molecule is an asymmetric top.
 Rotational symmetry number  1.
 Warning -- assumption of classical behavior for rotation
           may cause significant error
 Rotational temperatures (Kelvin)      0.05325     0.01294     0.01076
 Rotational constants (GHZ):           1.10958     0.26971     0.22424
 Zero-point vibrational energy     505502.4 (Joules/Mol)
                                  120.81796 (Kcal/Mol)
 Warning -- explicit consideration of  21 degrees of freedom as
           vibrations may cause significant error
 Vibrational temperatures:     39.61    50.01    59.76    75.72   119.20
          (Kelvin)            152.89   187.94   208.77   245.12   284.67
                              333.10   352.55   444.91   477.80   547.28
                              581.93   639.86   663.47   725.27   799.77
                              892.16   963.30   977.30  1026.16  1036.95
                             1125.26  1142.40  1203.29  1211.60  1338.90
                             1361.28  1373.95  1433.88  1447.37  1453.55
                             1482.25  1535.69  1573.78  1611.50  1664.24
                             1686.76  1740.64  1803.13  1868.04  1898.30
                             1916.57  1941.75  2030.07  2078.76  2091.64
                             2125.14  2140.32  2155.46  2273.91  2419.96
                             2463.40  2937.96  3851.86  4338.02  4402.74
                             4414.33  4451.39  4467.04  4500.70  4509.60
                             4520.41  4524.73  4538.70  4660.11

 Zero-point correction=                           0.192536 (Hartree/Particle)
 Thermal correction to Energy=                    0.207569
 Thermal correction to Enthalpy=                  0.208513
 Thermal correction to Gibbs Free Energy=         0.147692
 Sum of electronic and zero-point Energies=           -862.283016
 Sum of electronic and thermal Energies=              -862.267983
 Sum of electronic and thermal Enthalpies=            -862.267039
 Sum of electronic and thermal Free Energies=         -862.327860

                     E (Thermal)             CV                S
                      KCal/Mol        Cal/Mol-Kelvin    Cal/Mol-Kelvin
 Total                  130.252             52.767            128.009
 Electronic               0.000              0.000              0.000
 Translational            0.889              2.981             41.601
 Rotational               0.889              2.981             32.838
 Vibrational            128.474             46.806             53.570
 Vibration     1          0.593              1.984              6.000
 Vibration     2          0.594              1.983              5.537
 Vibration     3          0.594              1.981              5.184
 Vibration     4          0.596              1.977              4.716
 Vibration     5          0.600              1.961              3.822
 Vibration     6          0.605              1.944              3.336
 Vibration     7          0.612              1.923              2.937
 Vibration     8          0.616              1.908              2.735
 Vibration     9          0.625              1.879              2.431
 Vibration    10          0.637              1.843              2.153
 Vibration    11          0.653              1.793              1.867
 Vibration    12          0.660              1.771              1.766
 Vibration    13          0.699              1.656              1.366
 Vibration    14          0.714              1.611              1.250
 Vibration    15          0.750              1.512              1.038
 Vibration    16          0.770              1.460              0.946
 Vibration    17          0.804              1.373              0.812
 Vibration    18          0.819              1.336              0.763
 Vibration    19          0.859              1.241              0.648
 Vibration    20          0.911              1.127              0.532
 Vibration    21          0.980              0.990              0.416

 Optimization completed.
    -- Stationary point found.
 Normal termination of Gaussian 16 at Wed May 17 21:09:53 2023.
