 Gaussian 16, Revision A.03,
 Gaussian 16:  ES64L-G16RevA.03 25-Dec-2016

 -----------------------------
 # opt freq b3lyp/6-31g(2df,p)
 -----------------------------

 -------------------
 Title Card Required
 -------------------
 Symbolic Z-matrix:
 Charge =  0 Multiplicity = 1

 SCF Done:  E(RB3LYP) =  -865.021779573     A.U. after   15 cycles
 SCF Done:  E(RB3LYP) =  -865.032544219     A.U. after   12 cycles
 SCF Done:  E(RB3LYP) =  -865.034404307     A.U. after   11 cycles
 SCF Done:  E(RB3LYP) =  -865.034864805     A.U. after   10 cycles
 SCF Done:  E(RB3LYP) =  -865.034914692     A.U. after    9 cycles
 SCF Done:  E(RB3LYP) =  -865.034917237     A.U. after    8 cycles
 SCF Done:  E(RB3LYP) =  -865.034917228     A.U. after    7 cycles
 SCF Done:  E(RB3LYP) =  -865.034917427     A.U. after    7 cycles
 Optimization completed.
    -- Stationary point found.
 Normal termination of Gaussian 16 at Sat May 20 04:34:44 2023.

 ----------------------------------------------------------------------
 #N Geom=AllCheck Guess=TCheck SCRF=Check GenChk RB3LYP/6-31G(2df,p) Fr
 eq
 ----------------------------------------------------------------------

 Structure from the checkpoint file:  "CdCCqdCCCdCCdCCrCCdS.chk"
 -------------------
 Title Card Required
 -------------------
 Charge =  0 Multiplicity = 1

                         Standard orientation:
 ---------------------------------------------------------------------
 Center     Atomic      Atomic             Coordinates (Angstroms)
 Number     Number       Type             X           Y           Z
 ---------------------------------------------------------------------
      1          6           0       -1.341588    3.436873    0.000160
      2          6           0       -2.188225    2.399424    0.000033
      3          6           0       -1.944029    0.948450   -0.000098
      4          6           0       -0.745381    0.341494   -0.000113
      5          6           0        0.617354    0.979788   -0.000004
      6          6           0        1.752163   -0.017287   -0.000052
      7          6           0        3.052320    0.300759    0.000030
      8          6           0        4.137084   -0.662557   -0.000018
      9          6           0        5.438259   -0.344872    0.000065
     10          6           0        6.568182   -1.326679    0.000016
     11          6           0       -3.260586    0.173991   -0.000220
     12          6           0       -3.258151   -1.329292   -0.000405
     13         16           0       -4.588962   -2.256028    0.000222
     14          1           0       -1.733222    4.448587    0.000244
     15          1           0       -0.265697    3.347665    0.000186
     16          1           0       -3.248018    2.654625    0.000023
     17          1           0       -0.720535   -0.743971   -0.000213
     18          1           0        0.711580    1.645426    0.871791
     19          1           0        0.711645    1.645585   -0.871670
     20          1           0        1.475109   -1.071265   -0.000164
     21          1           0        3.343102    1.352026    0.000142
     22          1           0        3.849413   -1.714122   -0.000129
     23          1           0        5.716347    0.709070    0.000176
     24          1           0        6.205312   -2.358613   -0.000096
     25          1           0        7.212656   -1.192651    0.878430
     26          1           0        7.212726   -1.192485   -0.878320
     27          1           0       -3.861702    0.496343   -0.863073
     28          1           0       -3.861737    0.496137    0.862686
     29          1           0       -2.288003   -1.826454    0.000063
 ---------------------------------------------------------------------

 SCF Done:  E(RB3LYP) =  -865.034917427     A.U. after    1 cycles

 The electronic state is 1-A.
 Alpha  occ. eigenvalues --  -88.86070 -10.25941 -10.20979 -10.20432 -10.19820
 Alpha  occ. eigenvalues --  -10.19795 -10.19376 -10.18838 -10.18732 -10.18649
 Alpha  occ. eigenvalues --  -10.18413 -10.18302 -10.18219  -7.92621  -5.88974
 Alpha  occ. eigenvalues --   -5.88873  -5.88111  -0.84654  -0.81767  -0.80226
 Alpha  occ. eigenvalues --   -0.78080  -0.74732  -0.72998  -0.68711  -0.65067
 Alpha  occ. eigenvalues --   -0.61799  -0.56807  -0.56032  -0.55389  -0.52668
 Alpha  occ. eigenvalues --   -0.48691  -0.47058  -0.45090  -0.45056  -0.43425
 Alpha  occ. eigenvalues --   -0.43119  -0.42682  -0.41145  -0.40165  -0.39454
 Alpha  occ. eigenvalues --   -0.38825  -0.37241  -0.36356  -0.35328  -0.33992
 Alpha  occ. eigenvalues --   -0.33389  -0.32100  -0.30754  -0.28992  -0.23429
 Alpha  occ. eigenvalues --   -0.22328  -0.21404
 Alpha virt. eigenvalues --   -0.08276  -0.03184  -0.01953   0.06054   0.07769
 Alpha virt. eigenvalues --    0.08725   0.08818   0.10102   0.10867   0.11518
 Alpha virt. eigenvalues --    0.11754   0.13867   0.14584   0.15422   0.16698

 Mulliken charges:
               1
     1  C   -0.352951
     2  C   -0.025049
     3  C    0.245203
     4  C   -0.139610
     5  C   -0.319759
     6  C   -0.063881
     7  C   -0.084288
     8  C   -0.039176
     9  C   -0.052572
    10  C   -0.430020
    11  C   -0.325736
    12  C    0.017105
    13  S   -0.245295
    14  H    0.115124
    15  H    0.115064
    16  H    0.086518
    17  H    0.081275
    18  H    0.136122
    19  H    0.136122
    20  H    0.084332
    21  H    0.075712
    22  H    0.075678
    23  H    0.080316
    24  H    0.120300
    25  H    0.127485
    26  H    0.127485
    27  H    0.155038
    28  H    0.155064
    29  H    0.144394
 Sum of Mulliken charges =  -0.00000

 Dipole moment (field-independent basis, Debye):
    X=              2.3264    Y=              1.9695    Z=             -0.0001  Tot=              3.0481
 Quadrupole moment (field-independent basis, Debye-Ang):
   XX=            -90.7962   YY=            -86.4066   ZZ=            -89.3754
   XY=             -9.4751   XZ=              0.0005   YZ=              0.0007

  Exact polarizability: 253.341   2.300 166.868  -0.002  -0.001  78.069
 Approx polarizability: 339.388  19.374 247.938  -0.012  -0.007 128.938

 ******    4 imaginary frequencies (negative Signs) ******

                      1                      2                      3
                      A                      A                      A
 Frequencies --   -150.3221               -91.4850               -67.8935
 Red. masses --      2.0821                 1.7705                 2.0438
 Frc consts  --      0.0277                 0.0087                 0.0056
 IR Inten    --      4.0402                 0.6878                 0.3832

                      4                      5                      6
                      A                      A                      A
 Frequencies --    -30.2981                41.4547                65.5562
 Red. masses --      2.7174                 5.4068                 3.2641
 Frc consts  --      0.0015                 0.0055                 0.0083
 IR Inten    --      1.8324                 0.4088                 0.9260

                      7                      8                      9
                      A                      A                      A
 Frequencies --    115.1426               125.9874               166.3916
 Red. masses --      5.0968                 2.1388                 4.1868
 Frc consts  --      0.0398                 0.0200                 0.0683
 IR Inten    --      0.3530                 0.1025                 1.0255

                     10                     11                     12
                      A                      A                      A
 Frequencies --    179.4162               218.2543               248.0818
 Red. masses --      1.4998                 1.5664                 5.4874
 Frc consts  --      0.0284                 0.0440                 0.1990
 IR Inten    --      1.1698                 1.6280                 1.2160

                     13                     14                     15
                      A                      A                      A
 Frequencies --    252.4879               271.9057               333.9389
 Red. masses --      1.8729                 4.6153                 2.4945
 Frc consts  --      0.0703                 0.2010                 0.1639
 IR Inten    --      2.5549                 0.4894                 0.0208

                     16                     17                     18
                      A                      A                      A
 Frequencies --    348.2577               366.5735               393.5727
 Red. masses --      4.8114                 3.2938                 1.8221
 Frc consts  --      0.3438                 0.2608                 0.1663
 IR Inten    --      0.5786                 0.5035                 4.5680

                     19                     20                     21
                      A                      A                      A
 Frequencies --    426.9440               497.5701               547.6765
 Red. masses --      3.9014                 3.3615                 3.2906
 Frc consts  --      0.4190                 0.4903                 0.5815
 IR Inten    --      2.2610                 0.7827                 0.7241

                     22                     23                     24
                      A                      A                      A
 Frequencies --    611.0155               662.8633               746.3611
 Red. masses --      1.3960                 3.3613                 1.5175
 Frc consts  --      0.3071                 0.8702                 0.4981
 IR Inten    --      0.5191                 8.6505                21.5921

                     25                     26                     27
                      A                      A                      A
 Frequencies --    751.1370               805.4321               845.9134
 Red. masses --      1.6673                 1.3150                 2.9849
 Frc consts  --      0.5543                 0.5026                 1.2584
 IR Inten    --      0.0926                 2.0495                 1.0427

                     28                     29                     30
                      A                      A                      A
 Frequencies --    865.0202               934.2193               936.2722
 Red. masses --      1.7039                 1.3797                 1.6132
 Frc consts  --      0.7512                 0.7095                 0.8332
 IR Inten    --      0.1668                23.4496                19.4177

                     31                     32                     33
                      A                      A                      A
 Frequencies --    966.8038               980.1224               983.6252
 Red. masses --      2.0053                 1.7659                 1.2336
 Frc consts  --      1.1044                 0.9995                 0.7032
 IR Inten    --      6.1208                 1.5695                 0.7554

                     34                     35                     36
                      A                      A                      A
 Frequencies --    985.7951              1041.4471              1049.3321
 Red. masses --      6.5174                 1.0824                 1.1187
 Frc consts  --      3.7316                 0.6917                 0.7257
 IR Inten    --      0.9466                37.7020                 8.4324

                     37                     38                     39
                      A                      A                      A
 Frequencies --   1054.4968              1063.2613              1075.6150
 Red. masses --      4.0048                 1.5408                 2.5274
 Frc consts  --      2.6237                 1.0263                 1.7228
 IR Inten    --      0.3814                 0.3484                17.2361

                     40                     41                     42
                      A                      A                      A
 Frequencies --   1107.6655              1124.4237              1128.1052
 Red. masses --      2.2705                 3.0090                 1.9574
 Frc consts  --      1.6413                 2.2415                 1.4677
 IR Inten    --      1.5649                 5.8115                46.9152

                     43                     44                     45
                      A                      A                      A
 Frequencies --   1153.1641              1187.5485              1205.7128
 Red. masses --      2.2255                 2.4664                 1.0926
 Frc consts  --      1.7436                 2.0493                 0.9358
 IR Inten    --     74.1419                 3.6954                 0.2587

                     46                     47                     48
                      A                      A                      A
 Frequencies --   1229.8875              1242.6856              1289.7468
 Red. masses --      1.0905                 1.2487                 1.3742
 Frc consts  --      0.9719                 1.1362                 1.3468
 IR Inten    --      0.4541                16.8091                54.2969

                     49                     50                     51
                      A                      A                      A
 Frequencies --   1299.1863              1327.8173              1341.3928
 Red. masses --      1.2990                 1.3867                 1.2811
 Frc consts  --      1.2919                 1.4405                 1.3582
 IR Inten    --     12.2226                 2.1005                 0.4886

                     52                     53                     54
                      A                      A                      A
 Frequencies --   1363.4171              1369.4064              1380.2196
 Red. masses --      1.3509                 1.2666                 1.6071
 Frc consts  --      1.4795                 1.3994                 1.8038
 IR Inten    --      8.7332                 3.1995                14.7483

                     55                     56                     57
                      A                      A                      A
 Frequencies --   1411.8965              1425.4258              1426.0562
 Red. masses --      1.2616                 1.1984                 1.2710
 Frc consts  --      1.4818                 1.4347                 1.5229
 IR Inten    --      4.3284                11.7043                 9.4167

                     58                     59                     60
                      A                      A                      A
 Frequencies --   1450.0667              1477.6195              1483.1843
 Red. masses --      1.1157                 1.0449                 1.2058
 Frc consts  --      1.3823                 1.3442                 1.5628
 IR Inten    --      5.3882                 4.8110                 4.2925

                     61                     62                     63
                      A                      A                      A
 Frequencies --   1490.1537              1666.6400              1693.1629
 Red. masses --      1.0597                 5.3309                 6.0648
 Frc consts  --      1.3864                 8.7244                10.2438
 IR Inten    --      8.7708                 6.7646                 1.9784

                     64                     65                     66
                      A                      A                      A
 Frequencies --   1713.4851              1728.4470              2978.1193
 Red. masses --      5.3157                 5.7258                 1.0592
 Frc consts  --      9.1955                10.0786                 5.5348
 IR Inten    --      6.5239                 2.7286                 8.8169

                     67                     68                     69
                      A                      A                      A
 Frequencies --   2995.1735              3004.8061              3014.1949
 Red. masses --      1.0987                 1.0609                 1.0377
 Frc consts  --      5.8072                 5.6437                 5.5545
 IR Inten    --     10.7533                 9.8857                46.8564

                     70                     71                     72
                      A                      A                      A
 Frequencies --   3021.9941              3058.3794              3103.2589
 Red. masses --      1.0967                 1.0984                 1.0970
 Frc consts  --      5.9009                 6.0533                 6.2242
 IR Inten    --      2.1879                20.9164                 8.5482

                     73                     74                     75
                      A                      A                      A
 Frequencies --   3115.5582              3118.0159              3121.4295
 Red. masses --      1.0859                 1.0881                 1.0844
 Frc consts  --      6.2105                 6.2330                 6.2252
 IR Inten    --      8.8126                 0.8690                27.8738

                     76                     77                     78
                      A                      A                      A
 Frequencies --   3124.1310              3128.7903              3134.5631
 Red. masses --      1.0902                 1.0884                 1.0862
 Frc consts  --      6.2690                 6.2773                 6.2881
 IR Inten    --      1.4904                 4.1496                68.9389

                     79                     80                     81
                      A                      A                      A
 Frequencies --   3164.2869              3172.3243              3273.1277
 Red. masses --      1.0853                 1.0682                 1.1073
 Frc consts  --      6.4024                 6.3338                 6.9896
 IR Inten    --     17.1188                 8.2987                 8.5720

 - Thermochemistry -
 -------------------
 Temperature   298.150 Kelvin.  Pressure   1.00000 Atm.
 Atom     1 has atomic number  6 and mass  12.00000

 Molecular mass:   192.09727 amu.
 Principal axes and moments of inertia in atomic units:
                           1         2         3
     Eigenvalues --  1836.623549104.57316**********
           X            0.99977  -0.02168   0.00000
           Y            0.02168   0.99977   0.00000
           Z           -0.00000  -0.00000   1.00000
 This molecule is an asymmetric top.
 Rotational symmetry number  1.
 Warning -- assumption of classical behavior for rotation
           may cause significant error
 Rotational temperatures (Kelvin)      0.04716     0.00951     0.00794
 Rotational constants (GHZ):           0.98264     0.19822     0.16544
    4 imaginary frequencies ignored.
 Zero-point vibrational energy     635232.7 (Joules/Mol)
                                  151.82426 (Kcal/Mol)
 Warning -- explicit consideration of  18 degrees of freedom as
           vibrations may cause significant error
 Vibrational temperatures:     59.64    94.32   165.66   181.27   239.40
          (Kelvin)            258.14   314.02   356.93   363.27   391.21
                              480.46   501.07   527.42   566.26   614.28
                              715.89   787.98   879.11   953.71  1073.85
                             1080.72  1158.84  1217.08  1244.57  1344.13
                             1347.09  1391.02  1410.18  1415.22  1418.34
                             1498.41  1509.75  1517.19  1529.80  1547.57
                             1593.68  1617.79  1623.09  1659.15  1708.62
                             1734.75  1769.53  1787.95  1855.66  1869.24
                             1910.43  1929.97  1961.65  1970.27  1985.83
                             2031.40  2050.87  2051.78  2086.32  2125.96
                             2133.97  2144.00  2397.92  2436.08  2465.32
                             2486.85  4284.85  4309.39  4323.25  4336.75
                             4347.98  4400.33  4464.90  4482.59  4486.13
                             4491.04  4494.93  4501.63  4509.94  4552.70
                             4564.27  4709.30

 Zero-point correction=                           0.241947 (Hartree/Particle)
 Thermal correction to Energy=                    0.254450
 Thermal correction to Enthalpy=                  0.255394
 Thermal correction to Gibbs Free Energy=         0.201797
 Sum of electronic and zero-point Energies=           -864.792970
 Sum of electronic and thermal Energies=              -864.780468
 Sum of electronic and thermal Enthalpies=            -864.779524
 Sum of electronic and thermal Free Energies=         -864.833120

                     E (Thermal)             CV                S
                      KCal/Mol        Cal/Mol-Kelvin    Cal/Mol-Kelvin
 Total                  159.670             47.372            112.804
 Electronic               0.000              0.000              0.000
 Translational            0.889              2.981             41.664
 Rotational               0.889              2.981             33.567
 Vibrational            157.892             41.411             37.573
 Vibration     1          0.594              1.981              5.188
 Vibration     2          0.597              1.971              4.283
 Vibration     3          0.608              1.937              3.180
 Vibration     4          0.611              1.927              3.006
 Vibration     5          0.624              1.884              2.476
 Vibration     6          0.629              1.868              2.334
 Vibration     7          0.646              1.813              1.974
 Vibration     8          0.662              1.766              1.744
 Vibration     9          0.664              1.759              1.713
 Vibration    10          0.675              1.725              1.584
 Vibration    11          0.715              1.608              1.241
 Vibration    12          0.726              1.579              1.174
 Vibration    13          0.739              1.541              1.094
 Vibration    14          0.761              1.484              0.987
 Vibration    15          0.789              1.412              0.869
 Vibration    16          0.853              1.255              0.664
 Vibration    17          0.903              1.145              0.549
 Vibration    18          0.970              1.009              0.431

 Optimization completed.
    -- Stationary point found.
 Normal termination of Gaussian 16 at Sat May 20 05:36:26 2023.
