 Gaussian 16, Revision A.03,
 Gaussian 16:  ES64L-G16RevA.03 25-Dec-2016

 -----------------------------
 # opt freq b3lyp/6-31g(2df,p)
 -----------------------------

 -------------------
 Title Card Required
 -------------------
 Symbolic Z-matrix:
 Charge =  0 Multiplicity = 1

 SCF Done:  E(RB3LYP) =  -671.033436113     A.U. after   18 cycles
 SCF Done:  E(RB3LYP) =  -657.887272790     A.U. after   25 cycles
 SCF Done:  E(RB3LYP) =  -671.050750184     A.U. after   16 cycles
 SCF Done:  E(RB3LYP) =  -671.073751104     A.U. after   15 cycles
 SCF Done:  E(RB3LYP) =  -671.110853366     A.U. after   15 cycles
 SCF Done:  E(RB3LYP) =  -671.122259010     A.U. after   17 cycles
 SCF Done:  E(RB3LYP) =  -671.166265579     A.U. after   16 cycles
 SCF Done:  E(RB3LYP) =  -671.216107262     A.U. after   14 cycles
 SCF Done:  E(RB3LYP) =  -671.142953302     A.U. after   16 cycles
 SCF Done:  E(RB3LYP) =  -671.256756600     A.U. after   13 cycles
 SCF Done:  E(RB3LYP) =  -671.322952387     A.U. after    8 cycles
 SCF Done:  E(RB3LYP) =  -671.322955147     A.U. after    8 cycles
 SCF Done:  E(RB3LYP) =  -671.322960106     A.U. after    9 cycles
 SCF Done:  E(RB3LYP) =  -671.322968365     A.U. after   10 cycles
 SCF Done:  E(RB3LYP) =  -671.322977759     A.U. after    9 cycles
 SCF Done:  E(RB3LYP) =  -671.322991025     A.U. after   10 cycles
 SCF Done:  E(RB3LYP) =  -671.322996943     A.U. after    9 cycles
 SCF Done:  E(RB3LYP) =  -671.322997963     A.U. after    8 cycles
 SCF Done:  E(RB3LYP) =  -671.322998099     A.U. after    8 cycles
 Optimization completed.
    -- Stationary point found.
 Normal termination of Gaussian 16 at Thu May 18 19:43:44 2023.

 ----------------------------------------------------------------------
 #N Geom=AllCheck Guess=TCheck SCRF=Check GenChk RB3LYP/6-31G(2df,p) Fr
 eq
 ----------------------------------------------------------------------

 Structure from the checkpoint file:  "CdCC1qCqCrOrC2dCCdCNdCOC1C2.chk"
 -------------------
 Title Card Required
 -------------------
 Charge =  0 Multiplicity = 1

                         Standard orientation:
 ---------------------------------------------------------------------
 Center     Atomic      Atomic             Coordinates (Angstroms)
 Number     Number       Type             X           Y           Z
 ---------------------------------------------------------------------
      1          6           0       -0.066585    2.588714    0.216693
      2          6           0       -0.290767    1.508478   -0.528972
      3          6           0       -0.732144    0.174250    0.013394
      4          6           0       -2.305077    0.334479    0.156707
      5          6           0       -2.960866    0.635591   -1.194679
      6          8           0       -2.982226   -0.747722    0.776741
      7          6           0       -0.337709   -1.201663   -0.563338
      8          6           0        0.694480   -1.509910   -1.372381
      9          6           0        1.678660   -0.451954   -1.701020
     10          6           0        2.678125   -0.495463   -0.797861
     11          7           0        3.003844    0.633827   -0.015488
     12          6           0        2.226063    0.733638    0.989330
     13          8           0        1.369125   -0.258299    1.391615
     14          6           0       -0.080449   -0.371370    1.332519
     15          6           0       -0.387235   -1.827249    0.853813
     16          1           0        0.176853    3.546437   -0.229801
     17          1           0       -0.104220    2.560984    1.302018
     18          1           0       -0.272892    1.612185   -1.609240
     19          1           0       -2.458394    1.179823    0.836334
     20          1           0       -2.713573   -0.149795   -1.919507
     21          1           0       -2.639753    1.592749   -1.609438
     22          1           0       -4.045874    0.662879   -1.064527
     23          1           0       -3.068552   -1.450488    0.122417
     24          1           0        1.071826   -2.531314   -1.321709
     25          1           0        1.340816    0.517597   -2.037763
     26          1           0        3.017442   -1.451777   -0.398180
     27          1           0        2.314002    1.581167    1.668029
     28          1           0       -0.505410   -0.043014    2.286783
     29          1           0       -1.340732   -2.179540    1.239152
     30          1           0        0.407394   -2.541753    1.071760
 ---------------------------------------------------------------------

 SCF Done:  E(RB3LYP) =  -671.322998099     A.U. after    1 cycles

 The electronic state is 1-A.
 Alpha  occ. eigenvalues --  -19.16436 -19.14598 -14.32759 -10.28118 -10.26030
 Alpha  occ. eigenvalues --  -10.24536 -10.21571 -10.21233 -10.19770 -10.19437
 Alpha  occ. eigenvalues --  -10.19143 -10.18717 -10.18632 -10.18155 -10.18114
 Alpha  occ. eigenvalues --   -1.05932  -1.03030  -0.92504  -0.86904  -0.79954
 Alpha  occ. eigenvalues --   -0.77661  -0.74760  -0.71895  -0.67719  -0.63063
 Alpha  occ. eigenvalues --   -0.62207  -0.61360  -0.58271  -0.55112  -0.51869
 Alpha  occ. eigenvalues --   -0.51033  -0.50447  -0.49360  -0.46013  -0.45909
 Alpha  occ. eigenvalues --   -0.44950  -0.44157  -0.43626  -0.41851  -0.40990
 Alpha  occ. eigenvalues --   -0.40071  -0.39807  -0.37632  -0.36973  -0.36124
 Alpha  occ. eigenvalues --   -0.34716  -0.32625  -0.32192  -0.31270  -0.29707
 Alpha  occ. eigenvalues --   -0.28728  -0.27993  -0.26027  -0.25041  -0.18661
 Alpha virt. eigenvalues --   -0.01949  -0.00841   0.00266   0.00983   0.07849
 Alpha virt. eigenvalues --    0.08587   0.10022   0.10584   0.11394   0.12037
 Alpha virt. eigenvalues --    0.13391   0.14939   0.15108   0.15395   0.16530

 Mulliken charges:
               1
     1  C   -0.342150
     2  C   -0.088801
     3  C    0.175002
     4  C    0.111827
     5  C   -0.424713
     6  O   -0.433722
     7  C    0.093078
     8  C   -0.207126
     9  C   -0.184038
    10  C    0.016255
    11  N   -0.226954
    12  C    0.132027
    13  O   -0.276463
    14  C    0.092443
    15  C   -0.275028
    16  H    0.120220
    17  H    0.106684
    18  H    0.111978
    19  H    0.094075
    20  H    0.122323
    21  H    0.127934
    22  H    0.125793
    23  H    0.286615
    24  H    0.100710
    25  H    0.098272
    26  H    0.108812
    27  H    0.119426
    28  H    0.091499
    29  H    0.118162
    30  H    0.105859
 Sum of Mulliken charges =  -0.00000

 Dipole moment (field-independent basis, Debye):
    X=             -1.7802    Y=              0.1388    Z=              0.1819  Tot=              1.7949
 Quadrupole moment (field-independent basis, Debye-Ang):
   XX=            -96.9166   YY=            -82.8643   ZZ=            -89.2367
   XY=             -2.0475   XZ=              5.3449   YZ=              1.2845

  Exact polarizability: 150.218   2.472 135.056  -5.256   6.415 120.044
 Approx polarizability: 240.662   9.923 210.260 -16.249  17.039 217.320

                      1                      2                      3
                      A                      A                      A
 Frequencies --     60.7756                83.7413                93.7668
 Red. masses --      3.9004                 3.8728                 3.7719
 Frc consts  --      0.0085                 0.0160                 0.0195
 IR Inten    --      2.5265                 0.1161                 0.5862

                      4                      5                      6
                      A                      A                      A
 Frequencies --    136.0064               160.4487               175.6810
 Red. masses --      2.9718                 5.2025                 3.6083
 Frc consts  --      0.0324                 0.0789                 0.0656
 IR Inten    --      0.9198                 0.5101                 0.9718

                      7                      8                      9
                      A                      A                      A
 Frequencies --    242.2982               248.6259               271.7001
 Red. masses --      1.5633                 3.4096                 3.4795
 Frc consts  --      0.0541                 0.1242                 0.1513
 IR Inten    --      0.9379                 1.9299                 0.6485

                     10                     11                     12
                      A                      A                      A
 Frequencies --    274.8084               299.8206               330.3545
 Red. masses --      1.9661                 4.3975                 3.6206
 Frc consts  --      0.0875                 0.2329                 0.2328
 IR Inten    --      7.4503                 1.8643                18.8606

                     13                     14                     15
                      A                      A                      A
 Frequencies --    359.9664               384.0468               388.3291
 Red. masses --      2.4867                 1.9442                 2.5460
 Frc consts  --      0.1898                 0.1690                 0.2262
 IR Inten    --     34.2873                90.0063                11.9167

                     16                     17                     18
                      A                      A                      A
 Frequencies --    394.5872               431.4984               456.6344
 Red. masses --      3.6400                 2.1867                 1.7030
 Frc consts  --      0.3339                 0.2399                 0.2092
 IR Inten    --      5.2943                27.6950                24.9586

                     19                     20                     21
                      A                      A                      A
 Frequencies --    478.9824               506.1419               593.6110
 Red. masses --      3.2170                 3.1410                 3.4074
 Frc consts  --      0.4349                 0.4741                 0.7074
 IR Inten    --     42.1005                 7.7458                16.4186

                     22                     23                     24
                      A                      A                      A
 Frequencies --    611.7271               625.7615               636.5150
 Red. masses --      3.6159                 3.4790                 2.4597
 Frc consts  --      0.7972                 0.8026                 0.5872
 IR Inten    --      4.8789                 8.6565                 1.4408

                     25                     26                     27
                      A                      A                      A
 Frequencies --    666.4877               678.9565               779.4358
 Red. masses --      2.2473                 3.1721                 2.5960
 Frc consts  --      0.5882                 0.8615                 0.9292
 IR Inten    --      9.9707                78.4831                15.6992

                     28                     29                     30
                      A                      A                      A
 Frequencies --    801.3162               857.4611               866.6003
 Red. masses --      3.4448                 2.1334                 2.6865
 Frc consts  --      1.3032                 0.9242                 1.1887
 IR Inten    --      6.7433                32.3222                 7.6246

                     31                     32                     33
                      A                      A                      A
 Frequencies --    902.3592               919.2370               936.7565
 Red. masses --      1.9501                 2.6947                 2.6031
 Frc consts  --      0.9356                 1.3416                 1.3459
 IR Inten    --     23.7412                 5.4242                20.4462

                     34                     35                     36
                      A                      A                      A
 Frequencies --    943.9189               948.6811               969.4984
 Red. masses --      1.7864                 1.4885                 1.9937
 Frc consts  --      0.9378                 0.7893                 1.1041
 IR Inten    --     11.8033                15.2424                14.6266

                     37                     38                     39
                      A                      A                      A
 Frequencies --    994.6491               996.4663              1017.8219
 Red. masses --      1.8113                 1.9311                 2.0295
 Frc consts  --      1.0558                 1.1298                 1.2388
 IR Inten    --     17.6779                10.0525                 2.8295

                     40                     41                     42
                      A                      A                      A
 Frequencies --   1032.2192              1055.9830              1070.8655
 Red. masses --      1.7627                 2.7537                 1.2757
 Frc consts  --      1.1066                 1.8092                 0.8619
 IR Inten    --     29.3755                66.3457                 8.9664

                     43                     44                     45
                      A                      A                      A
 Frequencies --   1079.2272              1088.3172              1093.2650
 Red. masses --      1.6987                 2.4038                 2.7338
 Frc consts  --      1.1657                 1.6775                 1.9252
 IR Inten    --     33.4912                60.4069                11.0920

                     46                     47                     48
                      A                      A                      A
 Frequencies --   1121.6503              1133.5869              1135.3777
 Red. masses --      3.4524                 1.5443                 2.2409
 Frc consts  --      2.5591                 1.1692                 1.7020
 IR Inten    --    115.0081                 3.8052               180.8744

                     49                     50                     51
                      A                      A                      A
 Frequencies --   1200.0062              1213.1918              1249.0556
 Red. masses --      1.5959                 2.1145                 1.3075
 Frc consts  --      1.3540                 1.8336                 1.2018
 IR Inten    --      3.1834                 4.7515                 2.8898

                     52                     53                     54
                      A                      A                      A
 Frequencies --   1262.9485              1304.2387              1314.7000
 Red. masses --      1.6779                 1.4892                 1.2284
 Frc consts  --      1.5769                 1.4925                 1.2510
 IR Inten    --      5.4371                10.8260                 6.6606

                     55                     56                     57
                      A                      A                      A
 Frequencies --   1318.0177              1330.7029              1337.8461
 Red. masses --      1.3085                 1.2951                 1.2983
 Frc consts  --      1.3393                 1.3511                 1.3691
 IR Inten    --      3.9473                 3.9784                 6.7571

                     58                     59                     60
                      A                      A                      A
 Frequencies --   1356.2402              1386.8485              1398.7559
 Red. masses --      1.4087                 1.1902                 1.2430
 Frc consts  --      1.5266                 1.3487                 1.4329
 IR Inten    --      5.0168                 3.3296                14.8605

                     61                     62                     63
                      A                      A                      A
 Frequencies --   1428.0752              1451.9980              1478.6716
 Red. masses --      1.1776                 1.2120                 1.1095
 Frc consts  --      1.4150                 1.5055                 1.4292
 IR Inten    --     35.5549                 3.2223                11.3906

                     64                     65                     66
                      A                      A                      A
 Frequencies --   1494.7577              1498.6138              1592.7191
 Red. masses --      1.0476                 1.0500                 5.7707
 Frc consts  --      1.3791                 1.3893                 8.6249
 IR Inten    --      4.5457                 1.9364                25.7592

                     67                     68                     69
                      A                      A                      A
 Frequencies --   1626.1990              1638.3381              1689.6164
 Red. masses --      7.8349                 8.8587                 4.7124
 Frc consts  --     12.2076                14.0096                 7.9263
 IR Inten    --     18.2079               132.0283                 9.0260

                     70                     71                     72
                      A                      A                      A
 Frequencies --   3032.3992              3048.7120              3053.4714
 Red. masses --      1.0424                 1.0856                 1.0834
 Frc consts  --      5.6475                 5.9450                 5.9514
 IR Inten    --     10.2521                30.6465                34.5680

                     73                     74                     75
                      A                      A                      A
 Frequencies --   3093.2471              3108.8740              3109.4953
 Red. masses --      1.0610                 1.0965                 1.0865
 Frc consts  --      5.9811                 6.2441                 6.1893
 IR Inten    --     33.3003                21.3762                15.2300

                     76                     77                     78
                      A                      A                      A
 Frequencies --   3120.8885              3134.9757              3139.9406
 Red. masses --      1.0863                 1.1000                 1.0785
 Frc consts  --      6.2336                 6.3696                 6.2651
 IR Inten    --     27.0012                15.7459                10.3162

                     79                     80                     81
                      A                      A                      A
 Frequencies --   3143.6639              3164.7751              3167.7730
 Red. masses --      1.0722                 1.1052                 1.0901
 Frc consts  --      6.2430                 6.5219                 6.4453
 IR Inten    --     21.0205                 9.4127                 2.2409

                     82                     83                     84
                      A                      A                      A
 Frequencies --   3225.3968              3230.5694              3795.1463
 Red. masses --      1.1112                 1.0886                 1.0659
 Frc consts  --      6.8112                 6.6937                 9.0450
 IR Inten    --      4.0546                13.7372                22.3438

 - Thermochemistry -
 -------------------
 Temperature   298.150 Kelvin.  Pressure   1.00000 Atm.
 Atom     1 has atomic number  6 and mass  12.00000

 Molecular mass:   205.11028 amu.
 Principal axes and moments of inertia in atomic units:
                           1         2         3
     Eigenvalues --  1717.832363326.272023602.90148
           X            0.99981  -0.01260   0.01499
           Y            0.01306   0.99945  -0.03048
           Z           -0.01459   0.03067   0.99942
 This molecule is an asymmetric top.
 Rotational symmetry number  1.
 Warning -- assumption of classical behavior for rotation
           may cause significant error
 Rotational temperatures (Kelvin)      0.05042     0.02604     0.02404
 Rotational constants (GHZ):           1.05059     0.54257     0.50091
 Zero-point vibrational energy     648835.6 (Joules/Mol)
                                  155.07542 (Kcal/Mol)
 Warning -- explicit consideration of  22 degrees of freedom as
           vibrations may cause significant error
 Vibrational temperatures:     87.44   120.49   134.91   195.68   230.85
          (Kelvin)            252.77   348.61   357.72   390.92   395.39
                              431.37   475.31   517.91   552.56   558.72
                              567.72   620.83   657.00   689.15   728.23
                              854.07   880.14   900.33   915.80   958.93
                              976.87  1121.43  1152.92  1233.70  1246.84
                             1298.29  1322.58  1347.78  1358.09  1364.94
                             1394.89  1431.08  1433.69  1464.42  1485.13
                             1519.32  1540.74  1552.77  1565.85  1572.96
                             1613.80  1630.98  1633.56  1726.54  1745.51
                             1797.11  1817.10  1876.51  1891.56  1896.33
                             1914.58  1924.86  1951.33  1995.37  2012.50
                             2054.68  2089.10  2127.48  2150.62  2156.17
                             2291.57  2339.74  2357.20  2430.98  4362.95
                             4386.42  4393.26  4450.49  4472.98  4473.87
                             4490.26  4510.53  4517.67  4523.03  4553.41
                             4557.72  4640.63  4648.07  5460.37

 Zero-point correction=                           0.247128 (Hartree/Particle)
 Thermal correction to Energy=                    0.261129
 Thermal correction to Enthalpy=                  0.262073
 Thermal correction to Gibbs Free Energy=         0.207687
 Sum of electronic and zero-point Energies=           -671.075870
 Sum of electronic and thermal Energies=              -671.061869
 Sum of electronic and thermal Enthalpies=            -671.060925
 Sum of electronic and thermal Free Energies=         -671.115311

                     E (Thermal)             CV                S
                      KCal/Mol        Cal/Mol-Kelvin    Cal/Mol-Kelvin
 Total                  163.861             56.136            114.465
 Electronic               0.000              0.000              0.000
 Translational            0.889              2.981             41.859
 Rotational               0.889              2.981             31.399
 Vibrational            162.083             50.174             41.207
 Vibration     1          0.597              1.973              4.432
 Vibration     2          0.601              1.960              3.801
 Vibration     3          0.603              1.954              3.580
 Vibration     4          0.614              1.917              2.859
 Vibration     5          0.622              1.891              2.544
 Vibration     6          0.628              1.872              2.374
 Vibration     7          0.658              1.775              1.786
 Vibration     8          0.662              1.765              1.740
 Vibration     9          0.675              1.725              1.585
 Vibration    10          0.677              1.720              1.566
 Vibration    11          0.692              1.674              1.418
 Vibration    12          0.713              1.615              1.258
 Vibration    13          0.734              1.555              1.122
 Vibration    14          0.753              1.504              1.023
 Vibration    15          0.757              1.495              1.007
 Vibration    16          0.762              1.482              0.983
 Vibration    17          0.793              1.402              0.854
 Vibration    18          0.815              1.346              0.776
 Vibration    19          0.835              1.297              0.713
 Vibration    20          0.861              1.236              0.643
 Vibration    21          0.951              1.045              0.461
 Vibration    22          0.971              1.007              0.430

                           ! Non-Optimized Parameters !
 Normal termination of Gaussian 16 at Thu May 18 22:35:48 2023.
