 Gaussian 16, Revision A.03,
 Gaussian 16:  ES64L-G16RevA.03 25-Dec-2016

 -----------------------------
 # opt freq b3lyp/6-31g(2df,p)
 -----------------------------

 -------------------
 Title Card Required
 -------------------
 Symbolic Z-matrix:
 Charge =  0 Multiplicity = 1

 SCF Done:  E(RB3LYP) =  -587.551504277     A.U. after   21 cycles
 SCF Done:  E(RB3LYP) =  -587.603792108     A.U. after   15 cycles
 SCF Done:  E(RB3LYP) =  -587.645744608     A.U. after   16 cycles
 SCF Done:  E(RB3LYP) =  -587.658273509     A.U. after   15 cycles
 SCF Done:  E(RB3LYP) =  -587.659080027     A.U. after   14 cycles
 SCF Done:  E(RB3LYP) =  -587.654942920     A.U. after   16 cycles
 SCF Done:  E(RB3LYP) =  -587.659795082     A.U. after   12 cycles
 SCF Done:  E(RB3LYP) =  -587.660214380     A.U. after   14 cycles
 SCF Done:  E(RB3LYP) =  -587.661514643     A.U. after   16 cycles
 SCF Done:  E(RB3LYP) =  -587.662638887     A.U. after   17 cycles
 SCF Done:  E(RB3LYP) =  -587.664726896     A.U. after   12 cycles
 SCF Done:  E(RB3LYP) =  -587.664791145     A.U. after   14 cycles
 SCF Done:  E(RB3LYP) =  -587.664798524     A.U. after   12 cycles
 SCF Done:  E(RB3LYP) =  -587.664800046     A.U. after   10 cycles
 SCF Done:  E(RB3LYP) =  -587.664800335     A.U. after   10 cycles
 SCF Done:  E(RB3LYP) =  -587.664800438     A.U. after    8 cycles
 SCF Done:  E(RB3LYP) =  -587.664800490     A.U. after    8 cycles
 SCF Done:  E(RB3LYP) =  -587.664800524     A.U. after    7 cycles
 SCF Done:  E(RB3LYP) =  -587.664800538     A.U. after    7 cycles
 Optimization completed.
    -- Stationary point found.
 Normal termination of Gaussian 16 at Thu May 18 13:53:14 2023.

 ----------------------------------------------------------------------
 #N Geom=AllCheck Guess=TCheck SCRF=Check GenChk RB3LYP/6-31G(2df,p) Fr
 eq
 ----------------------------------------------------------------------

 Structure from the checkpoint file:  "CdCdCCC1dCCdCqNdNNdOrC1.chk"
 -------------------
 Title Card Required
 -------------------
 Charge =  0 Multiplicity = 1

                         Standard orientation:
 ---------------------------------------------------------------------
 Center     Atomic      Atomic             Coordinates (Angstroms)
 Number     Number       Type             X           Y           Z
 ---------------------------------------------------------------------
      1          6           0       -4.047776   -2.548250    0.006089
      2          6           0       -3.620192   -1.348781   -0.262776
      3          6           0       -3.197192   -0.143604   -0.522893
      4          6           0       -2.628250    0.809244    0.517653
      5          6           0       -1.191180    1.147493    0.256673
      6          6           0       -0.672577    2.366589   -0.047249
      7          6           0        0.755235    2.256601   -0.227697
      8          6           0        1.138827    0.958342   -0.038788
      9          7           0        2.442427    0.557693   -0.146091
     10          7           0        2.633398   -0.674523    0.059391
     11          7           0        4.083559   -0.882786   -0.104963
     12          8           0        4.353042   -2.029974    0.073160
     13          6           0       -0.079065    0.129931    0.287150
     14          1           0       -5.083396   -2.735652    0.276365
     15          1           0       -3.387786   -3.410459   -0.033535
     16          1           0       -3.232995    0.225889   -1.546602
     17          1           0       -2.728731    0.348239    1.506915
     18          1           0       -3.218127    1.733618    0.527324
     19          1           0       -1.235917    3.286737   -0.138641
     20          1           0        1.431705    3.065046   -0.473467
     21          1           0        0.006258   -0.362318    1.264134
     22          1           0       -0.238017   -0.679391   -0.435088
 ---------------------------------------------------------------------

 SCF Done:  E(RB3LYP) =  -587.664800538     A.U. after    1 cycles

 The electronic state is 1-A.
 Alpha  occ. eigenvalues --  -19.19014 -14.44804 -14.38965 -14.38091 -10.22966
 Alpha  occ. eigenvalues --  -10.22742 -10.22296 -10.21883 -10.21056 -10.20950
 Alpha  occ. eigenvalues --  -10.20943 -10.20925 -10.20037  -1.16551  -1.03530
 Alpha  occ. eigenvalues --   -0.89406  -0.82744  -0.79724  -0.76290  -0.72961
 Alpha  occ. eigenvalues --   -0.70507  -0.66470  -0.60554  -0.56109  -0.54276
 Alpha  occ. eigenvalues --   -0.53191  -0.52046  -0.48364  -0.47429  -0.47038
 Alpha  occ. eigenvalues --   -0.45945  -0.45148  -0.44991  -0.43585  -0.41887
 Alpha  occ. eigenvalues --   -0.40581  -0.39143  -0.38728  -0.38306  -0.36570
 Alpha  occ. eigenvalues --   -0.32690  -0.27881  -0.27719  -0.27002  -0.23774
 Alpha  occ. eigenvalues --   -0.21148
 Alpha virt. eigenvalues --   -0.11140  -0.04318   0.00098   0.00557   0.01690
 Alpha virt. eigenvalues --    0.07226   0.09521   0.11234   0.12026   0.12389
 Alpha virt. eigenvalues --    0.13509   0.14661   0.15509   0.16620   0.17598

 Mulliken charges:
               1
     1  C   -0.487021
     2  C    0.413152
     3  C   -0.298114
     4  C   -0.345242
     5  C    0.301496
     6  C   -0.193544
     7  C   -0.146201
     8  C    0.365256
     9  N   -0.189480
    10  N   -0.152006
    11  N    0.111998
    12  O   -0.190751
    13  C   -0.408983
    14  H    0.140749
    15  H    0.142896
    16  H    0.123457
    17  H    0.126228
    18  H    0.121093
    19  H    0.113344
    20  H    0.132591
    21  H    0.156059
    22  H    0.163023
 Sum of Mulliken charges =  -0.00000

 Dipole moment (field-independent basis, Debye):
    X=             -5.5424    Y=              2.4136    Z=              0.2941  Tot=              6.0523
 Quadrupole moment (field-independent basis, Debye-Ang):
   XX=            -88.3679   YY=            -68.9179   ZZ=            -72.7501
   XY=              5.7937   XZ=             -0.5207   YZ=             -0.7565

  Exact polarizability: 205.545 -19.219 165.868  -7.003  -9.998  66.107
 Approx polarizability: 302.582 -73.391 313.760 -10.177 -24.917 109.158

                      1                      2                      3
                      A                      A                      A
 Frequencies --     32.1281                35.1305                75.4025
 Red. masses --      5.0139                 3.5514                 4.3101
 Frc consts  --      0.0030                 0.0026                 0.0144
 IR Inten    --      0.2669                 0.0157                 0.0596

                      4                      5                      6
                      A                      A                      A
 Frequencies --     91.6802               112.5298               168.2627
 Red. masses --      5.7707                 4.7802                 4.4785
 Frc consts  --      0.0286                 0.0357                 0.0747
 IR Inten    --      0.1631                 0.3063                 0.2852

                      7                      8                      9
                      A                      A                      A
 Frequencies --    186.7011               197.5802               262.2318
 Red. masses --      5.4127                 6.0709                 3.1053
 Frc consts  --      0.1112                 0.1396                 0.1258
 IR Inten    --      0.4115                 0.3121                 1.6269

                     10                     11                     12
                      A                      A                      A
 Frequencies --    296.2788               341.6173               357.7476
 Red. masses --      2.7646                 5.6319                 2.3228
 Frc consts  --      0.1430                 0.3872                 0.1752
 IR Inten    --      1.3021                39.6796                 2.6022

                     13                     14                     15
                      A                      A                      A
 Frequencies --    406.7317               416.4919               470.7329
 Red. masses --      2.6866                 3.1190                 3.6027
 Frc consts  --      0.2619                 0.3188                 0.4704
 IR Inten    --      5.6792                18.4118                 1.8201

                     16                     17                     18
                      A                      A                      A
 Frequencies --    516.7471               541.6626               588.0704
 Red. masses --      2.9959                 2.0747                 2.6471
 Frc consts  --      0.4713                 0.3586                 0.5394
 IR Inten    --      4.2037                 1.3590                12.7562

                     19                     20                     21
                      A                      A                      A
 Frequencies --    657.4918               696.0388               734.7677
 Red. masses --      4.5140                 6.2826                 4.8378
 Frc consts  --      1.1497                 1.7933                 1.5388
 IR Inten    --    154.5674                14.4910               151.2620

                     22                     23                     24
                      A                      A                      A
 Frequencies --    860.6297               872.0631               878.2857
 Red. masses --      2.8081                 2.8286                 1.7235
 Frc consts  --      1.2255                 1.2674                 0.7833
 IR Inten    --      3.1981               121.8191                16.3535

                     25                     26                     27
                      A                      A                      A
 Frequencies --    882.4613               900.4821               913.6450
 Red. masses --      1.3456                 2.6138                 1.6030
 Frc consts  --      0.6174                 1.2487                 0.7884
 IR Inten    --     54.0544               283.7887                13.1082

                     28                     29                     30
                      A                      A                      A
 Frequencies --    919.3587               948.9057               961.1898
 Red. masses --      1.7051                 4.5809                 1.5082
 Frc consts  --      0.8491                 2.4302                 0.8210
 IR Inten    --     13.5823                93.7775                 2.4771

                     31                     32                     33
                      A                      A                      A
 Frequencies --   1010.3225              1019.7765              1039.0350
 Red. masses --      2.5216                 1.5281                 1.4672
 Frc consts  --      1.5165                 0.9363                 0.9332
 IR Inten    --      4.2160                 0.9598                58.1284

                     34                     35                     36
                      A                      A                      A
 Frequencies --   1116.1158              1142.9177              1155.7307
 Red. masses --      1.1839                 1.6478                 1.8147
 Frc consts  --      0.8689                 1.2682                 1.4282
 IR Inten    --      0.1549                31.8605                35.3462

                     37                     38                     39
                      A                      A                      A
 Frequencies --   1199.4579              1249.2225              1285.2594
 Red. masses --      1.2609                 1.3959                 3.2542
 Frc consts  --      1.0688                 1.2835                 3.1672
 IR Inten    --     24.2213                14.9614                 5.5751

                     40                     41                     42
                      A                      A                      A
 Frequencies --   1304.8188              1362.9923              1368.6150
 Red. masses --      1.4655                 3.5348                 1.5656
 Frc consts  --      1.4701                 3.8690                 1.7278
 IR Inten    --     21.7491                29.8414                12.8561

                     43                     44                     45
                      A                      A                      A
 Frequencies --   1384.3921              1404.3469              1467.1183
 Red. masses --      2.5538                 1.1824                 1.1692
 Frc consts  --      2.8837                 1.3739                 1.4827
 IR Inten    --    110.6383                17.4488                35.7673

                     46                     47                     48
                      A                      A                      A
 Frequencies --   1481.7332              1484.7926              1558.3507
 Red. masses --      1.5611                 5.8683                 7.7119
 Frc consts  --      2.0194                 7.6224                11.0343
 IR Inten    --     21.3971               340.5159                87.4367

                     49                     50                     51
                      A                      A                      A
 Frequencies --   1632.2395              1698.3884              2073.2380
 Red. masses --      5.9052                14.7464                 9.9965
 Frc consts  --      9.2694                25.0617                25.3160
 IR Inten    --     12.6795               228.0524                44.5393

                     52                     53                     54
                      A                      A                      A
 Frequencies --   3026.2787              3048.2592              3071.3602
 Red. masses --      1.0581                 1.0630                 1.1027
 Frc consts  --      5.7094                 5.8195                 6.1286
 IR Inten    --     21.0681                 1.3829                 8.5544

                     55                     56                     57
                      A                      A                      A
 Frequencies --   3078.8404              3129.9476              3135.9841
 Red. masses --      1.0963                 1.0605                 1.0866
 Frc consts  --      6.1230                 6.1213                 6.2963
 IR Inten    --      1.1098                 2.1301                 5.9644

                     58                     59                     60
                      A                      A                      A
 Frequencies --   3202.2833              3211.4308              3230.8892
 Red. masses --      1.1137                 1.0923                 1.0978
 Frc consts  --      6.7288                 6.6375                 6.7519
 IR Inten    --      1.3280                12.7912                 3.1548

 - Thermochemistry -
 -------------------
 Temperature   298.150 Kelvin.  Pressure   1.00000 Atm.
 Atom     1 has atomic number  6 and mass  12.00000

 Molecular mass:   175.07456 amu.
 Principal axes and moments of inertia in atomic units:
                           1         2         3
     Eigenvalues --  1468.690585025.898996369.97320
           X            0.99983   0.01843  -0.00193
           Y           -0.01843   0.99982  -0.00435
           Z            0.00185   0.00438   0.99999
 This molecule is an asymmetric top.
 Rotational symmetry number  1.
 Warning -- assumption of classical behavior for rotation
           may cause significant error
 Rotational temperatures (Kelvin)      0.05897     0.01723     0.01360
 Rotational constants (GHZ):           1.22881     0.35909     0.28332
 Zero-point vibrational energy     430040.7 (Joules/Mol)
                                  102.78218 (Kcal/Mol)
 Warning -- explicit consideration of  18 degrees of freedom as
           vibrations may cause significant error
 Vibrational temperatures:     46.23    50.54   108.49   131.91   161.91
          (Kelvin)            242.09   268.62   284.27   377.29   426.28
                              491.51   514.72   585.20   599.24   677.28
                              743.48   779.33   846.10   945.98  1001.44
                             1057.17  1238.25  1254.70  1263.66  1269.67
                             1295.59  1314.53  1322.75  1365.26  1382.94
                             1453.63  1467.23  1494.94  1605.84  1644.40
                             1662.84  1725.75  1797.35  1849.20  1877.34
                             1961.04  1969.13  1991.83  2020.54  2110.86
                             2131.88  2136.29  2242.12  2348.43  2443.60
                             2982.93  4354.14  4385.77  4419.00  4429.76
                             4503.30  4511.98  4607.37  4620.53  4648.53

 Zero-point correction=                           0.163794 (Hartree/Particle)
 Thermal correction to Energy=                    0.176507
 Thermal correction to Enthalpy=                  0.177451
 Thermal correction to Gibbs Free Energy=         0.122780
 Sum of electronic and zero-point Energies=           -587.501007
 Sum of electronic and thermal Energies=              -587.488294
 Sum of electronic and thermal Enthalpies=            -587.487350
 Sum of electronic and thermal Free Energies=         -587.542020

                     E (Thermal)             CV                S
                      KCal/Mol        Cal/Mol-Kelvin    Cal/Mol-Kelvin
 Total                  110.760             45.893            115.063
 Electronic               0.000              0.000              0.000
 Translational            0.889              2.981             41.387
 Rotational               0.889              2.981             32.220
 Vibrational            108.982             39.931             41.457
 Vibration     1          0.594              1.983              5.693
 Vibration     2          0.594              1.982              5.516
 Vibration     3          0.599              1.965              4.007
 Vibration     4          0.602              1.955              3.624
 Vibration     5          0.607              1.939              3.225
 Vibration     6          0.625              1.882              2.455
 Vibration     7          0.632              1.858              2.260
 Vibration     8          0.637              1.843              2.156
 Vibration     9          0.670              1.742              1.647
 Vibration    10          0.690              1.681              1.438
 Vibration    11          0.721              1.592              1.205
 Vibration    12          0.733              1.559              1.132
 Vibration    13          0.772              1.456              0.938
 Vibration    14          0.780              1.434              0.904
 Vibration    15          0.828              1.315              0.735
 Vibration    16          0.872              1.213              0.618
 Vibration    17          0.897              1.158              0.562
 Vibration    18          0.945              1.057              0.471

 Optimization completed.
    -- Stationary point found.
 Normal termination of Gaussian 16 at Thu May 18 14:42:52 2023.
