 Gaussian 16, Revision A.03,
 Gaussian 16:  ES64L-G16RevA.03 25-Dec-2016

 -----------------------------
 # opt freq b3lyp/6-31g(2df,p)
 -----------------------------

 -------------------
 Title Card Required
 -------------------
 Symbolic Z-matrix:
 Charge =  0 Multiplicity = 1

 SCF Done:  E(RB3LYP) =  -577.094742705     A.U. after   24 cycles
 SCF Done:  E(RB3LYP) =  -577.196982722     A.U. after   16 cycles
 SCF Done:  E(RB3LYP) =  -577.282725018     A.U. after   17 cycles
 SCF Done:  E(RB3LYP) =  -577.349150245     A.U. after   14 cycles
 SCF Done:  E(RB3LYP) =  -577.426559340     A.U. after   15 cycles
 SCF Done:  E(RB3LYP) =  -577.462638479     A.U. after   14 cycles
 SCF Done:  E(RB3LYP) =  -577.475613328     A.U. after   14 cycles
 SCF Done:  E(RB3LYP) =  -577.477725753     A.U. after   13 cycles
 SCF Done:  E(RB3LYP) =  -577.478214210     A.U. after   12 cycles
 SCF Done:  E(RB3LYP) =  -577.478314998     A.U. after   11 cycles
 SCF Done:  E(RB3LYP) =  -577.478353499     A.U. after   10 cycles
 SCF Done:  E(RB3LYP) =  -577.478368436     A.U. after   10 cycles
 SCF Done:  E(RB3LYP) =  -577.478372156     A.U. after    9 cycles
 SCF Done:  E(RB3LYP) =  -577.478373407     A.U. after    7 cycles
 Optimization completed.
    -- Stationary point found.
 Normal termination of Gaussian 16 at Mon May 15 19:54:30 2023.

 ----------------------------------------------------------------------
 #N Geom=AllCheck Guess=TCheck SCRF=Check GenChk RB3LYP/6-31G(2df,p) Fr
 eq
 ----------------------------------------------------------------------

 Structure from the checkpoint file:  "CdCdCc1cc2cqcc3cccc1-3rCdC2.chk"
 -------------------
 Title Card Required
 -------------------
 Charge =  0 Multiplicity = 1

                         Standard orientation:
 ---------------------------------------------------------------------
 Center     Atomic      Atomic             Coordinates (Angstroms)
 Number     Number       Type             X           Y           Z
 ---------------------------------------------------------------------
      1          6           0       -4.491881   -0.520748   -0.011310
      2          6           0       -3.381738    0.154666    0.007666
      3          6           0       -2.272764    0.857926    0.006553
      4          6           0       -0.902296    0.314779    0.004235
      5          6           0       -0.820661   -1.132819    0.004162
      6          6           0        0.310503   -1.858151    0.001430
      7          6           0        1.727683   -1.504555   -0.000588
      8          6           0        2.332682   -0.305950   -0.002362
      9          6           0        1.633391    0.944829   -0.001452
     10          6           0        2.260131    2.169002   -0.003284
     11          6           0        1.275031    3.214677   -0.001775
     12          6           0        0.030450    2.652880    0.000892
     13          6           0        0.160199    1.205708    0.001677
     14          6           0        2.032089   -2.965802   -0.000909
     15          6           0        0.715187   -3.297350    0.000754
     16          1           0       -4.991035   -0.825858    0.905258
     17          1           0       -4.968650   -0.805348   -0.946300
     18          1           0       -2.384338    1.936125    0.011749
     19          1           0       -1.769704   -1.659445    0.006093
     20          1           0        3.419124   -0.250365   -0.004311
     21          1           0        3.332597    2.314936   -0.005291
     22          1           0        1.492369    4.274767   -0.002962
     23          1           0       -0.895954    3.205546    0.001828
     24          1           0        2.951342   -3.536598   -0.002866
     25          1           0        0.166208   -4.228309    0.002662
 ---------------------------------------------------------------------

 SCF Done:  E(RB3LYP) =  -577.478373407     A.U. after    1 cycles

 The electronic state is 1-A.
 Alpha  occ. eigenvalues --  -10.22109 -10.21149 -10.20891 -10.20534 -10.20301
 Alpha  occ. eigenvalues --  -10.20255 -10.19960 -10.19035 -10.19029 -10.18648
 Alpha  occ. eigenvalues --  -10.18511 -10.17804 -10.16978 -10.16521 -10.16447
 Alpha  occ. eigenvalues --   -0.88996  -0.85838  -0.82542  -0.77789  -0.76143
 Alpha  occ. eigenvalues --   -0.72693  -0.69739  -0.67733  -0.62980  -0.60401
 Alpha  occ. eigenvalues --   -0.58262  -0.54556  -0.53060  -0.51640  -0.50950
 Alpha  occ. eigenvalues --   -0.47516  -0.45799  -0.45084  -0.44828  -0.43690
 Alpha  occ. eigenvalues --   -0.41412  -0.39619  -0.37713  -0.37378  -0.36482
 Alpha  occ. eigenvalues --   -0.36021  -0.35752  -0.33869  -0.32673  -0.32403
 Alpha  occ. eigenvalues --   -0.27457  -0.26351  -0.25121  -0.20756  -0.17944
 Alpha virt. eigenvalues --   -0.08224  -0.02011  -0.01051   0.00880   0.04087
 Alpha virt. eigenvalues --    0.09987   0.11229   0.11555   0.12204   0.13515
 Alpha virt. eigenvalues --    0.13953   0.14844   0.15789   0.16488   0.17129

 Mulliken charges:
               1
     1  C   -0.473824
     2  C    0.410799
     3  C   -0.391195
     4  C    0.160814
     5  C   -0.376366
     6  C    0.306953
     7  C    0.256556
     8  C   -0.354043
     9  C    0.171390
    10  C   -0.192277
    11  C   -0.150646
    12  C   -0.186645
    13  C    0.113710
    14  C   -0.205873
    15  C   -0.218251
    16  H    0.143979
    17  H    0.144671
    18  H    0.128289
    19  H    0.101786
    20  H    0.090573
    21  H    0.088572
    22  H    0.093562
    23  H    0.093925
    24  H    0.123039
    25  H    0.120503
 Sum of Mulliken charges =  -0.00000

 Dipole moment (field-independent basis, Debye):
    X=             -0.9443    Y=             -1.7246    Z=             -0.0088  Tot=              1.9662
 Quadrupole moment (field-independent basis, Debye-Ang):
   XX=            -72.3705   YY=            -76.6054   ZZ=            -89.1491
   XY=             -0.6350   XZ=              0.0230   YZ=              0.0012

  Exact polarizability: 246.783  27.218 244.023   0.008   0.009  62.863
 Approx polarizability: 422.488  88.516 507.124  -0.236  -0.057 106.784

                      1                      2                      3
                      A                      A                      A
 Frequencies --     43.0631                84.1508               116.7272
 Red. masses --      3.0969                 3.0907                 4.0080
 Frc consts  --      0.0034                 0.0129                 0.0322
 IR Inten    --      0.0473                 0.0326                 0.6559

                      4                      5                      6
                      A                      A                      A
 Frequencies --    135.7508               160.4716               278.7658
 Red. masses --      4.0606                 3.4409                 5.2966
 Frc consts  --      0.0441                 0.0522                 0.2425
 IR Inten    --      1.6190                 1.5158                 0.9672

                      7                      8                      9
                      A                      A                      A
 Frequencies --    285.9311               299.2289               330.4261
 Red. masses --      4.1355                 2.7364                 4.1782
 Frc consts  --      0.1992                 0.1444                 0.2688
 IR Inten    --      2.7517                 0.6190                 1.4249

                     10                     11                     12
                      A                      A                      A
 Frequencies --    338.4464               341.8921               378.1717
 Red. masses --      2.2861                 7.0722                 6.4154
 Frc consts  --      0.1543                 0.4871                 0.5406
 IR Inten    --      3.9078                 0.1616                 0.0618

                     13                     14                     15
                      A                      A                      A
 Frequencies --    392.2197               469.4101               495.1295
 Red. masses --      3.2974                 5.9471                 2.0491
 Frc consts  --      0.2989                 0.7721                 0.2960
 IR Inten    --      2.9089                 1.0998                 0.0154

                     16                     17                     18
                      A                      A                      A
 Frequencies --    580.4477               584.1875               668.0075
 Red. masses --      4.5946                 2.9767                 2.2209
 Frc consts  --      0.9121                 0.5985                 0.5839
 IR Inten    --      6.1709                 0.2202                 2.8867

                     19                     20                     21
                      A                      A                      A
 Frequencies --    685.1622               700.7147               708.9043
 Red. masses --      6.4242                 1.5776                 5.5865
 Frc consts  --      1.7769                 0.4564                 1.6541
 IR Inten    --      2.2779                19.5873                19.5485

                     22                     23                     24
                      A                      A                      A
 Frequencies --    758.5908               763.2939               789.3372
 Red. masses --      1.3855                 4.7385                 2.9925
 Frc consts  --      0.4697                 1.6266                 1.0985
 IR Inten    --     13.2914                 4.4080                23.2095

                     25                     26                     27
                      A                      A                      A
 Frequencies --    817.1304               821.5236               837.1095
 Red. masses --      5.5474                 1.4726                 4.8924
 Frc consts  --      2.1824                 0.5856                 2.0199
 IR Inten    --     14.6534                 3.9862                 4.0611

                     28                     29                     30
                      A                      A                      A
 Frequencies --    878.1355               879.8197               881.2291
 Red. masses --      1.4436                 1.3398                 2.5649
 Frc consts  --      0.6559                 0.6111                 1.1735
 IR Inten    --     33.5889                 0.3624                11.7078

                     31                     32                     33
                      A                      A                      A
 Frequencies --    884.4242               906.3534               908.0334
 Red. masses --      1.2896                 1.2980                 1.3893
 Frc consts  --      0.5943                 0.6283                 0.6749
 IR Inten    --     13.0804                 7.7285                14.1791

                     34                     35                     36
                      A                      A                      A
 Frequencies --    930.1243               946.7248              1006.8312
 Red. masses --      1.4099                 5.1883                 1.5246
 Frc consts  --      0.7186                 2.7398                 0.9106
 IR Inten    --     11.0322                 3.3031                 0.1180

                     37                     38                     39
                      A                      A                      A
 Frequencies --   1018.0445              1036.6369              1067.9828
 Red. masses --      2.2920                 2.3445                 1.3598
 Frc consts  --      1.3996                 1.4844                 0.9138
 IR Inten    --      3.0497                 0.8170                 4.5366

                     40                     41                     42
                      A                      A                      A
 Frequencies --   1092.0955              1104.4252              1160.7628
 Red. masses --      1.7428                 1.8420                 2.9960
 Frc consts  --      1.2246                 1.3237                 2.3784
 IR Inten    --      2.2897                 3.1141                 2.6093

                     43                     44                     45
                      A                      A                      A
 Frequencies --   1177.5605              1235.4821              1251.8458
 Red. masses --      1.8351                 2.1215                 1.8803
 Frc consts  --      1.4993                 1.9079                 1.7361
 IR Inten    --     11.2204                22.7843                 8.4910

                     46                     47                     48
                      A                      A                      A
 Frequencies --   1281.7397              1328.3255              1340.3441
 Red. masses --      1.7736                 2.2274                 2.0163
 Frc consts  --      1.7168                 2.3156                 2.1342
 IR Inten    --      9.3688                 7.6743                22.4873

                     49                     50                     51
                      A                      A                      A
 Frequencies --   1359.8236              1406.9527              1423.0633
 Red. masses --      1.6849                 2.2177                 2.3848
 Frc consts  --      1.8356                 2.5865                 2.8455
 IR Inten    --     44.6341                13.2363                50.3390

                     52                     53                     54
                      A                      A                      A
 Frequencies --   1469.0552              1482.2077              1543.5486
 Red. masses --      1.5429                 4.5249                 5.0079
 Frc consts  --      1.9619                 5.8571                 7.0298
 IR Inten    --      6.7874                33.0260                 1.1714

                     55                     56                     57
                      A                      A                      A
 Frequencies --   1568.7637              1592.2560              1697.0941
 Red. masses --      7.4545                 5.2509                 7.9616
 Frc consts  --     10.8090                 7.8435                13.5102
 IR Inten    --     75.0800                 1.6192                71.3821

                     58                     59                     60
                      A                      A                      A
 Frequencies --   1739.4573              2038.9094              3120.4039
 Red. masses --      9.7082                10.2202                 1.0590
 Frc consts  --     17.3068                25.0325                 6.0750
 IR Inten    --     30.3981               116.2200                 3.8867

                     61                     62                     63
                      A                      A                      A
 Frequencies --   3149.1234              3174.1010              3188.3590
 Red. masses --      1.0885                 1.0873                 1.0853
 Frc consts  --      6.3600                 6.4544                 6.5004
 IR Inten    --     17.5781                 4.5616                 2.9496

                     64                     65                     66
                      A                      A                      A
 Frequencies --   3190.4038              3207.3020              3214.8317
 Red. masses --      1.1132                 1.0885                 1.0870
 Frc consts  --      6.6761                 6.5974                 6.6192
 IR Inten    --      1.0850                 9.5853                 3.6438

                     67                     68                     69
                      A                      A                      A
 Frequencies --   3222.3543              3246.6055              3250.6716
 Red. masses --      1.0947                 1.1125                 1.0979
 Frc consts  --      6.6971                 6.9088                 6.8353
 IR Inten    --     20.8748                 8.1835                10.8501

 - Thermochemistry -
 -------------------
 Temperature   298.150 Kelvin.  Pressure   1.00000 Atm.
 Atom     1 has atomic number  6 and mass  12.00000

 Molecular mass:   190.07825 amu.
 Principal axes and moments of inertia in atomic units:
                           1         2         3
     Eigenvalues --  2506.923642949.430115443.98248
           X            0.99897   0.04538   0.00012
           Y           -0.04538   0.99897   0.00001
           Z           -0.00012  -0.00002   1.00000
 This molecule is an asymmetric top.
 Rotational symmetry number  1.
 Warning -- assumption of classical behavior for rotation
           may cause significant error
 Rotational temperatures (Kelvin)      0.03455     0.02937     0.01591
 Rotational constants (GHZ):           0.71990     0.61189     0.33151
 Zero-point vibrational energy     505221.3 (Joules/Mol)
                                  120.75079 (Kcal/Mol)
 Warning -- explicit consideration of  17 degrees of freedom as
           vibrations may cause significant error
 Vibrational temperatures:     61.96   121.07   167.94   195.32   230.88
          (Kelvin)            401.08   411.39   430.52   475.41   486.95
                              491.91   544.10   564.32   675.38   712.38
                              835.13   840.52   961.11   985.80  1008.17
                             1019.96  1091.44  1098.21  1135.68  1175.67
                             1181.99  1204.41  1263.44  1265.86  1267.89
                             1272.49  1304.04  1306.46  1338.24  1362.13
                             1448.61  1464.74  1491.49  1536.59  1571.28
                             1589.02  1670.08  1694.25  1777.58  1801.13
                             1844.14  1911.16  1928.46  1956.48  2024.29
                             2047.47  2113.64  2132.57  2220.82  2257.10
                             2290.90  2441.74  2502.69  2933.54  4489.57
                             4530.89  4566.82  4587.34  4590.28  4614.59
                             4625.43  4636.25  4671.14  4676.99

 Zero-point correction=                           0.192429 (Hartree/Particle)
 Thermal correction to Energy=                    0.204472
 Thermal correction to Enthalpy=                  0.205417
 Thermal correction to Gibbs Free Energy=         0.154019
 Sum of electronic and zero-point Energies=           -577.285945
 Sum of electronic and thermal Energies=              -577.273901
 Sum of electronic and thermal Enthalpies=            -577.272957
 Sum of electronic and thermal Free Energies=         -577.324354

                     E (Thermal)             CV                S
                      KCal/Mol        Cal/Mol-Kelvin    Cal/Mol-Kelvin
 Total                  128.308             48.480            108.175
 Electronic               0.000              0.000              0.000
 Translational            0.889              2.981             41.632
 Rotational               0.889              2.981             32.065
 Vibrational            126.531             42.518             34.478
 Vibration     1          0.595              1.980              5.113
 Vibration     2          0.601              1.960              3.792
 Vibration     3          0.608              1.935              3.154
 Vibration     4          0.614              1.918              2.863
 Vibration     5          0.622              1.891              2.544
 Vibration     6          0.679              1.713              1.541
 Vibration     7          0.684              1.700              1.498
 Vibration     8          0.692              1.675              1.421
 Vibration     9          0.713              1.615              1.258
 Vibration    10          0.719              1.599              1.219
 Vibration    11          0.721              1.592              1.203
 Vibration    12          0.748              1.517              1.046
 Vibration    13          0.760              1.487              0.992
 Vibration    14          0.827              1.318              0.739
 Vibration    15          0.851              1.261              0.670
 Vibration    16          0.937              1.074              0.485
 Vibration    17          0.941              1.066              0.478

                           ! Non-Optimized Parameters !
 Normal termination of Gaussian 16 at Mon May 15 21:29:02 2023.
