 Gaussian 16, Revision A.03,
 Gaussian 16:  ES64L-G16RevA.03 25-Dec-2016

 -----------------------------
 # opt freq b3lyp/6-31g(2df,p)
 -----------------------------

 -------------------
 Title Card Required
 -------------------
 Symbolic Z-matrix:
 Charge =  0 Multiplicity = 1

 SCF Done:  E(RB3LYP) =  -993.503916292     A.U. after   21 cycles
 SCF Done:  E(RB3LYP) =  -993.621189462     A.U. after   16 cycles
 SCF Done:  E(RB3LYP) =  -993.790791010     A.U. after   17 cycles
 SCF Done:  E(RB3LYP) =  -993.901536684     A.U. after   20 cycles
 SCF Done:  E(RB3LYP) =  -993.974373210     A.U. after   16 cycles
 SCF Done:  E(RB3LYP) =  -994.033957268     A.U. after   16 cycles
 SCF Done:  E(RB3LYP) =  -994.064704977     A.U. after   15 cycles
 SCF Done:  E(RB3LYP) =  -994.092409437     A.U. after   16 cycles
 SCF Done:  E(RB3LYP) =  -994.107823963     A.U. after   15 cycles
 SCF Done:  E(RB3LYP) =  -994.121986082     A.U. after   15 cycles
 SCF Done:  E(RB3LYP) =  -994.195589403     A.U. after   10 cycles
 SCF Done:  E(RB3LYP) =  -994.195594942     A.U. after   10 cycles
 SCF Done:  E(RB3LYP) =  -994.195601047     A.U. after    9 cycles
 SCF Done:  E(RB3LYP) =  -994.195607347     A.U. after   10 cycles
 SCF Done:  E(RB3LYP) =  -994.195608545     A.U. after    9 cycles
 SCF Done:  E(RB3LYP) =  -994.195609723     A.U. after    8 cycles
 SCF Done:  E(RB3LYP) =  -994.195610045     A.U. after    7 cycles
 SCF Done:  E(RB3LYP) =  -994.195610119     A.U. after    7 cycles
 SCF Done:  E(RB3LYP) =  -994.195610164     A.U. after    7 cycles
 Optimization completed.
    -- Stationary point found.
 Normal termination of Gaussian 16 at Fri May 19 08:28:42 2023.

 ----------------------------------------------------------------------
 #N Geom=AllCheck Guess=TCheck SCRF=Check GenChk RB3LYP/6-31G(2df,p) Fr
 eq
 ----------------------------------------------------------------------

 Structure from the checkpoint file:  "CdCN1CdCCdCCdC2CdCCdCCdC2S1.chk"
 -------------------
 Title Card Required
 -------------------
 Charge =  0 Multiplicity = 1

                         Standard orientation:
 ---------------------------------------------------------------------
 Center     Atomic      Atomic             Coordinates (Angstroms)
 Number     Number       Type             X           Y           Z
 ---------------------------------------------------------------------
      1          6           0        7.669508   -0.240786    0.264346
      2          6           0        6.514188    0.426712    0.170563
      3          7           0        5.294173   -0.229615    0.125403
      4          6           0        4.228526    0.488557    0.035443
      5          6           0        2.918230   -0.100675   -0.018786
      6          6           0        1.780938    0.631837   -0.107217
      7          6           0        0.462804    0.070537   -0.161804
      8          6           0       -0.646269    0.849440   -0.226675
      9          6           0       -2.066073    0.530602   -0.180376
     10          6           0       -2.885429    1.646400   -0.330410
     11          6           0       -4.275845    1.849232   -0.215490
     12          6           0       -5.217750    0.995209    0.293964
     13          6           0       -4.981715   -0.315174    0.764589
     14          6           0       -3.849369   -1.075532    0.651140
     15          6           0       -2.584553   -0.838227   -0.004945
     16         16           0       -1.765405   -2.204869   -0.513271
     17          1           0        8.618294    0.280547    0.299178
     18          1           0        7.677193   -1.323773    0.307215
     19          1           0        6.510346    1.521902    0.127156
     20          1           0        4.278835    1.588653   -0.003994
     21          1           0        2.874893   -1.185765    0.018080
     22          1           0        1.863256    1.718680   -0.138503
     23          1           0        0.372033   -1.008547   -0.159609
     24          1           0       -0.461415    1.922148   -0.270505
     25          1           0       -2.345329    2.552112   -0.597377
     26          1           0       -4.618748    2.839418   -0.503122
     27          1           0       -6.234781    1.367071    0.378060
     28          1           0       -5.827764   -0.806602    1.238385
     29          1           0       -3.922682   -2.089425    1.033498
 ---------------------------------------------------------------------

 SCF Done:  E(RB3LYP) =  -994.195610164     A.U. after    1 cycles

 The electronic state is 1-A.
 Alpha  occ. eigenvalues --  -88.83041 -14.32617 -10.25184 -10.23497 -10.22781
 Alpha  occ. eigenvalues --  -10.22187 -10.21945 -10.21856 -10.21731 -10.21582
 Alpha  occ. eigenvalues --  -10.20916 -10.20519 -10.20464 -10.19852 -10.19736
 Alpha  occ. eigenvalues --  -10.17854  -7.89601  -5.85952  -5.85779  -5.85168
 Alpha  occ. eigenvalues --   -0.92830  -0.87575  -0.83228  -0.81071  -0.80499
 Alpha  occ. eigenvalues --   -0.76890  -0.74025  -0.71855  -0.68189  -0.63944
 Alpha  occ. eigenvalues --   -0.62430  -0.58775  -0.56808  -0.55834  -0.54147
 Alpha  occ. eigenvalues --   -0.52511  -0.51636  -0.49776  -0.47715  -0.45589
 Alpha  occ. eigenvalues --   -0.45260  -0.43109  -0.41425  -0.40294  -0.40124
 Alpha  occ. eigenvalues --   -0.39601  -0.38315  -0.38164  -0.37781  -0.36848
 Alpha  occ. eigenvalues --   -0.36080  -0.34587  -0.34289  -0.31497  -0.30949
 Alpha  occ. eigenvalues --   -0.26561  -0.25832  -0.22982  -0.21039  -0.20011
 Alpha virt. eigenvalues --   -0.10477  -0.08035  -0.05273   0.01354   0.05537
 Alpha virt. eigenvalues --    0.05960   0.07938   0.09100   0.09282   0.10006
 Alpha virt. eigenvalues --    0.10574   0.11372   0.12567   0.13793   0.14926

 Mulliken charges:
               1
     1  C   -0.343577
     2  C    0.099349
     3  N   -0.210421
     4  C    0.034459
     5  C   -0.140197
     6  C   -0.039318
     7  C   -0.126507
     8  C   -0.082912
     9  C    0.126369
    10  C   -0.091977
    11  C   -0.096954
    12  C   -0.092180
    13  C   -0.085601
    14  C   -0.099171
    15  C    0.144654
    16  S   -0.405349
    17  H    0.118005
    18  H    0.120699
    19  H    0.078196
    20  H    0.077451
    21  H    0.117153
    22  H    0.089016
    23  H    0.148214
    24  H    0.083973
    25  H    0.105561
    26  H    0.108438
    27  H    0.112016
    28  H    0.111748
    29  H    0.138861
 Sum of Mulliken charges =  -0.00000

 Dipole moment (field-independent basis, Debye):
    X=             -2.9329    Y=              4.8484    Z=              0.9922  Tot=              5.7527
 Quadrupole moment (field-independent basis, Debye-Ang):
   XX=            -80.0446   YY=            -98.7519   ZZ=           -104.7486
   XY=             -2.1867   XZ=             -4.0985   YZ=             -3.9116

  Exact polarizability: 612.185 -40.930 194.459  -6.680  -4.175  84.032
 Approx polarizability:1009.538-165.710 396.864 -23.454  -1.348 149.230

                      1                      2                      3
                      A                      A                      A
 Frequencies --     23.0737                39.1931                48.9994
 Red. masses --      4.4847                 5.1884                 4.5794
 Frc consts  --      0.0014                 0.0047                 0.0065
 IR Inten    --      0.1977                 0.3741                 0.1459

                      4                      5                      6
                      A                      A                      A
 Frequencies --     63.5146                92.0652               124.2779
 Red. masses --      2.0717                 4.1122                 5.1314
 Frc consts  --      0.0049                 0.0205                 0.0467
 IR Inten    --      2.4138                 1.1135                 4.2745

                      7                      8                      9
                      A                      A                      A
 Frequencies --    144.9344               195.1748               200.4016
 Red. masses --      4.3942                 2.2229                 5.5414
 Frc consts  --      0.0544                 0.0499                 0.1311
 IR Inten    --      2.5183                 0.1133                 0.2922

                     10                     11                     12
                      A                      A                      A
 Frequencies --    220.4393               249.8212               287.0793
 Red. masses --      3.3506                 6.1615                 3.9394
 Frc consts  --      0.0959                 0.2266                 0.1913
 IR Inten    --      4.2932                 3.3041                 2.2976

                     13                     14                     15
                      A                      A                      A
 Frequencies --    310.3432               321.2378               365.0594
 Red. masses --      3.4719                 4.1037                 2.3830
 Frc consts  --      0.1970                 0.2495                 0.1871
 IR Inten    --      2.3795                 5.1604                 0.8869

                     16                     17                     18
                      A                      A                      A
 Frequencies --    386.9456               398.6321               437.2699
 Red. masses --      4.9128                 3.9838                 4.8212
 Frc consts  --      0.4334                 0.3730                 0.5431
 IR Inten    --      0.0949                 2.5023                 8.5633

                     19                     20                     21
                      A                      A                      A
 Frequencies --    449.9031               525.1649               552.2934
 Red. masses --      4.0462                 4.1767                 4.0078
 Frc consts  --      0.4825                 0.6787                 0.7203
 IR Inten    --      3.3777                 0.9892                 0.0574

                     22                     23                     24
                      A                      A                      A
 Frequencies --    602.2769               606.7117               621.4318
 Red. masses --      3.0265                 3.9667                 4.3707
 Frc consts  --      0.6468                 0.8603                 0.9945
 IR Inten    --      4.1339                 1.7672                 0.0380

                     25                     26                     27
                      A                      A                      A
 Frequencies --    698.0607               735.0536               747.3930
 Red. masses --      2.9774                 1.4735                 1.6118
 Frc consts  --      0.8548                 0.4691                 0.5305
 IR Inten    --     10.4738                 0.1109                18.8454

                     28                     29                     30
                      A                      A                      A
 Frequencies --    787.2921               854.2199               879.7342
 Red. masses --      3.1828                 1.4128                 1.6363
 Frc consts  --      1.1623                 0.6074                 0.7461
 IR Inten    --     16.9132                 1.8003                 6.1616

                     31                     32                     33
                      A                      A                      A
 Frequencies --    899.5188               926.0570               931.0164
 Red. masses --      5.2869                 1.7935                 1.4071
 Frc consts  --      2.5204                 0.9062                 0.7186
 IR Inten    --     17.3451                 3.5994                32.8074

                     34                     35                     36
                      A                      A                      A
 Frequencies --    962.1293               967.5638               975.1987
 Red. masses --      1.6037                 1.9160                 1.6187
 Frc consts  --      0.8747                 1.0568                 0.9070
 IR Inten    --      8.0172                 3.5015                 3.9207

                     37                     38                     39
                      A                      A                      A
 Frequencies --    977.9274               992.4186              1008.9185
 Red. masses --      2.1407                 1.2495                 1.3439
 Frc consts  --      1.2062                 0.7251                 0.8060
 IR Inten    --      2.4090                 4.2340                 1.8390

                     40                     41                     42
                      A                      A                      A
 Frequencies --   1023.3655              1023.5404              1045.6733
 Red. masses --      1.2971                 1.3413                 3.0974
 Frc consts  --      0.8003                 0.8279                 1.9954
 IR Inten    --      1.2243                 1.7535                 7.0106

                     43                     44                     45
                      A                      A                      A
 Frequencies --   1051.7845              1121.1369              1148.3274
 Red. masses --      1.1578                 4.2135                 2.9713
 Frc consts  --      0.7546                 3.1204                 2.3085
 IR Inten    --     50.4913                92.1232                46.8792

                     46                     47                     48
                      A                      A                      A
 Frequencies --   1180.3937              1194.4576              1205.4861
 Red. masses --      2.4551                 2.2248                 2.4360
 Frc consts  --      2.0154                 1.8701                 2.0857
 IR Inten    --      7.6319                29.7144                 0.6683

                     49                     50                     51
                      A                      A                      A
 Frequencies --   1234.2233              1268.1047              1269.0200
 Red. masses --      1.3828                 1.3869                 1.4652
 Frc consts  --      1.2411                 1.3141                 1.3903
 IR Inten    --      8.2866                40.0823                 8.1525

                     52                     53                     54
                      A                      A                      A
 Frequencies --   1306.0735              1316.8742              1323.4828
 Red. masses --      1.4178                 1.5949                 1.4690
 Frc consts  --      1.4250                 1.6296                 1.5161
 IR Inten    --     40.1357                 3.1069                48.0362

                     55                     56                     57
                      A                      A                      A
 Frequencies --   1331.4633              1365.8715              1386.2185
 Red. masses --      1.2437                 1.4842                 1.5150
 Frc consts  --      1.2991                 1.6314                 1.7152
 IR Inten    --      9.8443                 1.7865                19.4149

                     58                     59                     60
                      A                      A                      A
 Frequencies --   1439.0427              1442.0594              1453.4056
 Red. masses --      1.4442                 1.3450                 1.6506
 Frc consts  --      1.7621                 1.6480                 2.0543
 IR Inten    --     20.4725                 7.4348                39.9628

                     61                     62                     63
                      A                      A                      A
 Frequencies --   1487.2789              1500.9142              1599.3204
 Red. masses --      3.6374                 1.9660                 4.8875
 Frc consts  --      4.7405                 2.6095                 7.3656
 IR Inten    --    179.0788                10.1373                 4.1315

                     64                     65                     66
                      A                      A                      A
 Frequencies --   1608.9675              1633.4324              1643.7501
 Red. masses --      4.6452                 4.4987                 4.8426
 Frc consts  --      7.0851                 7.0720                 7.7091
 IR Inten    --     14.0856                52.0183                 1.6927

                     67                     68                     69
                      A                      A                      A
 Frequencies --   1658.2666              1699.4284              2985.7879
 Red. masses --      5.6620                 4.6095                 1.0842
 Frc consts  --      9.1734                 7.8435                 5.6948
 IR Inten    --     53.6750                13.7199                61.3588

                     70                     71                     72
                      A                      A                      A
 Frequencies --   3054.1679              3121.2644              3125.2942
 Red. masses --      1.0862                 1.0869                 1.0871
 Frc consts  --      5.9697                 6.2387                 6.2561
 IR Inten    --     91.1633                 0.6182                26.3155

                     73                     74                     75
                      A                      A                      A
 Frequencies --   3142.3250              3152.9416              3163.9709
 Red. masses --      1.0837                 1.0839                 1.0870
 Frc consts  --      6.3047                 6.3488                 6.4112
 IR Inten    --     18.4334                 5.4767                10.1724

                     76                     77                     78
                      A                      A                      A
 Frequencies --   3166.0856              3177.1798              3177.3018
 Red. masses --      1.0612                 1.0893                 1.0902
 Frc consts  --      6.2674                 6.4787                 6.4843
 IR Inten    --      4.5590                 4.0297                 9.9166

                     79                     80                     81
                      A                      A                      A
 Frequencies --   3184.2876              3203.7208              3259.4742
 Red. masses --      1.0938                 1.0888                 1.1165
 Frc consts  --      6.5348                 6.5845                 6.9891
 IR Inten    --     21.9845                 0.1470                 5.6340

 - Thermochemistry -
 -------------------
 Temperature   298.150 Kelvin.  Pressure   1.00000 Atm.
 Atom     1 has atomic number  6 and mass  12.00000

 Molecular mass:   227.07687 amu.
 Principal axes and moments of inertia in atomic units:
                           1         2         3
     Eigenvalues --  1268.17752********************
           X            1.00000  -0.00207  -0.00111
           Y            0.00205   0.99978  -0.02101
           Z            0.00116   0.02101   0.99978
 This molecule is an asymmetric top.
 Rotational symmetry number  1.
 Warning -- assumption of classical behavior for rotation
           may cause significant error
 Rotational temperatures (Kelvin)      0.06830     0.00660     0.00611
 Rotational constants (GHZ):           1.42310     0.13749     0.12726
 Zero-point vibrational energy     601027.3 (Joules/Mol)
                                  143.64896 (Kcal/Mol)
 Warning -- explicit consideration of  23 degrees of freedom as
           vibrations may cause significant error
 Vibrational temperatures:     33.20    56.39    70.50    91.38   132.46
          (Kelvin)            178.81   208.53   280.81   288.33   317.16
                              359.44   413.04   446.51   462.19   525.24
                              556.73   573.54   629.13   647.31   755.60
                              794.63   866.54   872.92   894.10  1004.35
                             1057.58  1075.33  1132.74  1229.03  1265.74
                             1294.21  1332.39  1339.52  1384.29  1392.11
                             1403.09  1407.02  1427.87  1451.61  1472.39
                             1472.65  1504.49  1513.28  1613.07  1652.19
                             1698.32  1718.56  1734.43  1775.77  1824.52
                             1825.84  1879.15  1894.69  1904.20  1915.68
                             1965.18  1994.46  2070.46  2074.80  2091.13
                             2139.86  2159.48  2301.07  2314.95  2350.14
                             2364.99  2385.88  2445.10  4295.88  4394.27
                             4490.80  4496.60  4521.10  4536.38  4552.25
                             4555.29  4571.25  4571.43  4581.48  4609.44
                             4689.66

 Zero-point correction=                           0.228919 (Hartree/Particle)
 Thermal correction to Energy=                    0.244263
 Thermal correction to Enthalpy=                  0.245207
 Thermal correction to Gibbs Free Energy=         0.184014
 Sum of electronic and zero-point Energies=           -993.966691
 Sum of electronic and thermal Energies=              -993.951347
 Sum of electronic and thermal Enthalpies=            -993.950403
 Sum of electronic and thermal Free Energies=         -994.011596

                     E (Thermal)             CV                S
                      KCal/Mol        Cal/Mol-Kelvin    Cal/Mol-Kelvin
 Total                  153.277             56.950            128.791
 Electronic               0.000              0.000              0.000
 Translational            0.889              2.981             42.163
 Rotational               0.889              2.981             33.823
 Vibrational            151.500             50.988             52.806
 Vibration     1          0.593              1.985              6.350
 Vibration     2          0.594              1.981              5.299
 Vibration     3          0.595              1.978              4.857
 Vibration     4          0.597              1.972              4.345
 Vibration     5          0.602              1.955              3.616
 Vibration     6          0.610              1.929              3.033
 Vibration     7          0.616              1.908              2.738
 Vibration     8          0.636              1.847              2.178
 Vibration     9          0.638              1.839              2.129
 Vibration    10          0.647              1.810              1.955
 Vibration    11          0.663              1.763              1.732
 Vibration    12          0.684              1.698              1.491
 Vibration    13          0.699              1.654              1.361
 Vibration    14          0.707              1.633              1.304
 Vibration    15          0.738              1.544              1.100
 Vibration    16          0.755              1.498              1.012
 Vibration    17          0.765              1.473              0.968
 Vibration    18          0.798              1.389              0.835
 Vibration    19          0.809              1.361              0.796
 Vibration    20          0.880              1.194              0.598
 Vibration    21          0.908              1.135              0.539
 Vibration    22          0.961              1.027              0.446
 Vibration    23          0.965              1.018              0.438

                           ! Non-Optimized Parameters !
 Normal termination of Gaussian 16 at Fri May 19 10:06:37 2023.
