 Gaussian 16, Revision A.03,
 Gaussian 16:  ES64L-G16RevA.03 25-Dec-2016

 -----------------------------
 # opt freq b3lyp/6-31g(2df,p)
 -----------------------------

 -------------------
 Title Card Required
 -------------------
 Symbolic Z-matrix:
 Charge =  0 Multiplicity = 1

 SCF Done:  E(RB3LYP) =  -556.515518517     A.U. after   17 cycles
 SCF Done:  E(RB3LYP) =  -556.566648977     A.U. after   14 cycles
 SCF Done:  E(RB3LYP) =  -556.604621014     A.U. after   15 cycles
 SCF Done:  E(RB3LYP) =  -556.618875801     A.U. after   14 cycles
 SCF Done:  E(RB3LYP) =  -556.623020088     A.U. after   13 cycles
 SCF Done:  E(RB3LYP) =  -556.625322788     A.U. after   14 cycles
 SCF Done:  E(RB3LYP) =  -556.626022055     A.U. after   13 cycles
 SCF Done:  E(RB3LYP) =  -556.627111817     A.U. after   14 cycles
 SCF Done:  E(RB3LYP) =  -556.629136047     A.U. after   14 cycles
 SCF Done:  E(RB3LYP) =  -556.630270946     A.U. after   13 cycles
 SCF Done:  E(RB3LYP) =  -556.630848819     A.U. after   14 cycles
 SCF Done:  E(RB3LYP) =  -556.630752966     A.U. after   13 cycles
 SCF Done:  E(RB3LYP) =  -556.630941599     A.U. after   12 cycles
 SCF Done:  E(RB3LYP) =  -556.630954978     A.U. after   11 cycles
 SCF Done:  E(RB3LYP) =  -556.630958391     A.U. after   10 cycles
 SCF Done:  E(RB3LYP) =  -556.630959071     A.U. after    8 cycles
 SCF Done:  E(RB3LYP) =  -556.630959295     A.U. after    8 cycles
 SCF Done:  E(RB3LYP) =  -556.630959351     A.U. after    8 cycles
 Optimization completed.
    -- Stationary point found.
 Normal termination of Gaussian 16 at Wed May 17 09:24:40 2023.

 ----------------------------------------------------------------------
 #N Geom=AllCheck Guess=TCheck SCRF=Check GenChk RB3LYP/6-31G(2df,p) Fr
 eq
 ----------------------------------------------------------------------

 Structure from the checkpoint file:  "CdCNdc1cccc2cccccc1-2.chk"
 -------------------
 Title Card Required
 -------------------
 Charge =  0 Multiplicity = 1

                         Standard orientation:
 ---------------------------------------------------------------------
 Center     Atomic      Atomic             Coordinates (Angstroms)
 Number     Number       Type             X           Y           Z
 ---------------------------------------------------------------------
      1          6           0        4.196566   -1.636371    0.128826
      2          6           0        3.374031   -0.583333   -0.006262
      3          7           0        2.009393   -0.740594   -0.009154
      4          6           0        1.174806    0.264501   -0.013439
      5          6           0        1.536495    1.663462    0.150377
      6          6           0        0.612735    2.654657    0.133941
      7          6           0       -0.783308    2.388872   -0.079282
      8          6           0       -1.206156    1.113965   -0.231466
      9          6           0       -2.528043    0.518093   -0.451988
     10          6           0       -3.174485   -0.147959    0.532596
     11          6           0       -3.170338   -1.581290    0.308293
     12          6           0       -1.970018   -2.054219   -0.159864
     13          6           0       -0.689767   -1.355084   -0.265648
     14          6           0       -0.278854   -0.032001   -0.180272
     15          1           0        5.272324   -1.509926    0.128745
     16          1           0        3.797507   -2.637070    0.249096
     17          1           0        3.812925    0.408066   -0.139967
     18          1           0        2.574278    1.911985    0.329597
     19          1           0        0.926695    3.683977    0.279569
     20          1           0       -1.491775    3.208935   -0.101717
     21          1           0       -2.593685    0.042513   -1.432120
     22          1           0       -3.255880    0.237122    1.548480
     23          1           0       -3.943329   -2.271634    0.636502
     24          1           0       -1.880015   -3.129821   -0.307584
     25          1           0        0.153212   -2.039754   -0.321393
 ---------------------------------------------------------------------

 SCF Done:  E(RB3LYP) =  -556.630959351     A.U. after    1 cycles

 The electronic state is 1-A.
 Alpha  occ. eigenvalues --  -14.31076 -10.23029 -10.20902 -10.20676 -10.20568
 Alpha  occ. eigenvalues --  -10.20520 -10.20298 -10.20117 -10.19971 -10.19539
 Alpha  occ. eigenvalues --  -10.19401 -10.19073 -10.18739 -10.17040  -0.92214
 Alpha  occ. eigenvalues --   -0.86695  -0.82762  -0.77677  -0.76862  -0.74452
 Alpha  occ. eigenvalues --   -0.70499  -0.65861  -0.63874  -0.59668  -0.57501
 Alpha  occ. eigenvalues --   -0.53659  -0.53256  -0.50721  -0.49759  -0.47829
 Alpha  occ. eigenvalues --   -0.46662  -0.44076  -0.43714  -0.41638  -0.40661
 Alpha  occ. eigenvalues --   -0.39526  -0.38513  -0.38060  -0.37273  -0.36383
 Alpha  occ. eigenvalues --   -0.33639  -0.32780  -0.31461  -0.26589  -0.25811
 Alpha  occ. eigenvalues --   -0.24663  -0.23297  -0.18641
 Alpha virt. eigenvalues --   -0.10065  -0.03917  -0.00144   0.01104   0.06316
 Alpha virt. eigenvalues --    0.07599   0.10011   0.10969   0.12761   0.13703
 Alpha virt. eigenvalues --    0.14810   0.15046   0.16143   0.17014   0.17964

 Mulliken charges:
               1
     1  C   -0.345671
     2  C    0.080225
     3  N   -0.322833
     4  C    0.252179
     5  C   -0.178515
     6  C   -0.095931
     7  C   -0.305428
     8  C    0.255554
     9  C   -0.224803
    10  C   -0.115940
    11  C   -0.120271
    12  C   -0.064843
    13  C   -0.118352
    14  C    0.123173
    15  H    0.111919
    16  H    0.109716
    17  H    0.085293
    18  H    0.105521
    19  H    0.104776
    20  H    0.105327
    21  H    0.119722
    22  H    0.111171
    23  H    0.103810
    24  H    0.097706
    25  H    0.126493
 Sum of Mulliken charges =  -0.00000

 Dipole moment (field-independent basis, Debye):
    X=             -0.9440    Y=              0.8384    Z=              0.3596  Tot=              1.3128
 Quadrupole moment (field-independent basis, Debye-Ang):
   XX=            -76.4895   YY=            -73.1622   ZZ=            -82.8396
   XY=              4.9792   XZ=             -1.2509   YZ=              0.4918

  Exact polarizability: 301.186  -4.750 183.366  -2.066   0.143  70.070
 Approx polarizability: 595.665  -9.893 337.055  -2.290  -4.128 125.615

                      1                      2                      3
                      A                      A                      A
 Frequencies --     49.7985                78.9802               114.4676
 Red. masses --      3.6421                 2.2827                 4.0323
 Frc consts  --      0.0053                 0.0084                 0.0311
 IR Inten    --      1.0660                 1.9618                 5.5544

                      4                      5                      6
                      A                      A                      A
 Frequencies --    151.3840               162.9045               201.7552
 Red. masses --      3.5309                 3.4116                 3.1879
 Frc consts  --      0.0477                 0.0533                 0.0765
 IR Inten    --      0.3864                 1.5063                10.1345

                      7                      8                      9
                      A                      A                      A
 Frequencies --    266.6116               295.2445               363.6131
 Red. masses --      2.5910                 3.7141                 4.2457
 Frc consts  --      0.1085                 0.1908                 0.3307
 IR Inten    --      6.6832                 3.7570                 2.1163

                     10                     11                     12
                      A                      A                      A
 Frequencies --    383.8743               400.0332               443.5106
 Red. masses --      3.9604                 3.2486                 5.3075
 Frc consts  --      0.3438                 0.3063                 0.6151
 IR Inten    --      6.3895                16.2477                 8.1944

                     13                     14                     15
                      A                      A                      A
 Frequencies --    460.9295               473.1500               513.7400
 Red. masses --      4.1343                 3.1505                 4.3934
 Frc consts  --      0.5175                 0.4156                 0.6832
 IR Inten    --      0.0490                 2.6211                 8.7108

                     16                     17                     18
                      A                      A                      A
 Frequencies --    552.0460               632.8679               664.5546
 Red. masses --      4.2150                 3.3250                 2.6112
 Frc consts  --      0.7568                 0.7846                 0.6794
 IR Inten    --      2.2940                 3.7646                 5.1007

                     19                     20                     21
                      A                      A                      A
 Frequencies --    721.3768               733.4933               753.3721
 Red. masses --      2.2487                 1.7263                 3.0520
 Frc consts  --      0.6894                 0.5472                 1.0206
 IR Inten    --      1.5747                 7.2517                45.6962

                     22                     23                     24
                      A                      A                      A
 Frequencies --    770.8601               793.0468               819.4403
 Red. masses --      2.0553                 1.9380                 2.6713
 Frc consts  --      0.7196                 0.7181                 1.0568
 IR Inten    --     11.0611                 3.9172                23.0719

                     25                     26                     27
                      A                      A                      A
 Frequencies --    828.4029               833.7588               887.7443
 Red. masses --      3.9637                 2.7072                 1.4343
 Frc consts  --      1.6026                 1.1088                 0.6660
 IR Inten    --      2.4466                13.2431                 2.4634

                     28                     29                     30
                      A                      A                      A
 Frequencies --    908.0891               943.6271               963.4729
 Red. masses --      1.4007                 1.7196                 2.4920
 Frc consts  --      0.6805                 0.9022                 1.3629
 IR Inten    --     37.0040                33.0313                12.5037

                     31                     32                     33
                      A                      A                      A
 Frequencies --    977.8704               988.0543              1000.8057
 Red. masses --      1.2998                 2.6350                 1.2092
 Frc consts  --      0.7323                 1.5157                 0.7136
 IR Inten    --      0.5711                 3.4584                 9.0925

                     34                     35                     36
                      A                      A                      A
 Frequencies --   1004.5231              1019.8569              1047.3735
 Red. masses --      1.3601                 1.4891                 2.3508
 Frc consts  --      0.8086                 0.9126                 1.5194
 IR Inten    --     29.1665                12.5194                 4.8113

                     37                     38                     39
                      A                      A                      A
 Frequencies --   1062.3356              1080.2859              1177.7554
 Red. masses --      2.2506                 1.7766                 2.1833
 Frc consts  --      1.4965                 1.2215                 1.7843
 IR Inten    --      1.8387                 2.6953                 1.5232

                     40                     41                     42
                      A                      A                      A
 Frequencies --   1186.5098              1206.9522              1220.9794
 Red. masses --      1.7761                 1.2828                 2.0772
 Frc consts  --      1.4732                 1.1010                 1.8245
 IR Inten    --      6.3449                 0.1989                29.8332

                     43                     44                     45
                      A                      A                      A
 Frequencies --   1267.4877              1287.5665              1315.9179
 Red. masses --      1.5795                 3.0259                 1.4081
 Frc consts  --      1.4950                 2.9555                 1.4366
 IR Inten    --      2.4151                11.2909                 9.4127

                     46                     47                     48
                      A                      A                      A
 Frequencies --   1340.4205              1365.8748              1384.3691
 Red. masses --      1.3375                 1.3587                 1.8249
 Frc consts  --      1.4159                 1.4935                 2.0606
 IR Inten    --      0.2753                 4.7449                21.8606

                     49                     50                     51
                      A                      A                      A
 Frequencies --   1424.5861              1440.1619              1442.8345
 Red. masses --      1.6285                 1.2950                 1.9656
 Frc consts  --      1.9472                 1.5824                 2.4109
 IR Inten    --      0.6244                 1.0714                 8.9604

                     52                     53                     54
                      A                      A                      A
 Frequencies --   1474.1569              1547.8444              1577.5155
 Red. masses --      3.2268                 4.9029                 4.8752
 Frc consts  --      4.1315                 6.9208                 7.1481
 IR Inten    --     22.7621                54.5936                15.6903

                     55                     56                     57
                      A                      A                      A
 Frequencies --   1589.0907              1608.0752              1660.2717
 Red. masses --      6.6399                 5.2462                 4.2855
 Frc consts  --      9.8789                 7.9929                 6.9600
 IR Inten    --     36.9975                 2.9811                12.5950

                     58                     59                     60
                      A                      A                      A
 Frequencies --   1690.8590              3087.4971              3093.3525
 Red. masses --      6.4061                 1.0842                 1.0839
 Frc consts  --     10.7909                 6.0896                 6.1107
 IR Inten    --     24.8733                65.8587                11.0787

                     61                     62                     63
                      A                      A                      A
 Frequencies --   3127.6392              3130.6935              3158.8531
 Red. masses --      1.0853                 1.0856                 1.0895
 Frc consts  --      6.2551                 6.2689                 6.4053
 IR Inten    --      7.9242                17.5804                29.8909

                     64                     65                     66
                      A                      A                      A
 Frequencies --   3162.8948              3164.9793              3169.3809
 Red. masses --      1.0608                 1.0896                 1.0870
 Frc consts  --      6.2525                 6.4305                 6.4334
 IR Inten    --      5.5993                18.2945                14.3154

                     67                     68                     69
                      A                      A                      A
 Frequencies --   3195.6152              3215.2661              3256.7546
 Red. masses --      1.0919                 1.0916                 1.1164
 Frc consts  --      6.5694                 6.6490                 6.9766
 IR Inten    --     13.9444                10.7976                 7.1721

 - Thermochemistry -
 -------------------
 Temperature   298.150 Kelvin.  Pressure   1.00000 Atm.
 Atom     1 has atomic number  6 and mass  12.00000

 Molecular mass:   181.08915 amu.
 Principal axes and moments of inertia in atomic units:
                           1         2         3
     Eigenvalues --  1513.770903460.811184865.09788
           X            1.00000   0.00136  -0.00099
           Y           -0.00135   1.00000   0.00225
           Z            0.00100  -0.00225   1.00000
 This molecule is an asymmetric top.
 Rotational symmetry number  1.
 Warning -- assumption of classical behavior for rotation
           may cause significant error
 Rotational temperatures (Kelvin)      0.05722     0.02503     0.01780
 Rotational constants (GHZ):           1.19222     0.52148     0.37096
 Zero-point vibrational energy     522286.1 (Joules/Mol)
                                  124.82936 (Kcal/Mol)
 Warning -- explicit consideration of  16 degrees of freedom as
           vibrations may cause significant error
 Vibrational temperatures:     71.65   113.63   164.69   217.81   234.38
          (Kelvin)            290.28   383.59   424.79   523.16   552.31
                              575.56   638.11   663.17   680.76   739.16
                              794.27   910.56   956.15  1037.90  1055.33
                             1083.93  1109.10  1141.02  1178.99  1191.89
                             1199.59  1277.27  1306.54  1357.67  1386.22
                             1406.94  1421.59  1439.94  1445.28  1467.35
                             1506.94  1528.46  1554.29  1694.53  1707.12
                             1736.54  1756.72  1823.63  1852.52  1893.31
                             1928.57  1965.19  1991.80  2049.66  2072.07
                             2075.92  2120.98  2227.00  2269.69  2286.35
                             2313.66  2388.76  2432.77  4442.22  4450.64
                             4499.98  4504.37  4544.89  4550.70  4553.70
                             4560.03  4597.78  4626.05  4685.74

 Zero-point correction=                           0.198928 (Hartree/Particle)
 Thermal correction to Energy=                    0.210531
 Thermal correction to Enthalpy=                  0.211475
 Thermal correction to Gibbs Free Energy=         0.161057
 Sum of electronic and zero-point Energies=           -556.432031
 Sum of electronic and thermal Energies=              -556.420428
 Sum of electronic and thermal Enthalpies=            -556.419484
 Sum of electronic and thermal Free Energies=         -556.469903

                     E (Thermal)             CV                S
                      KCal/Mol        Cal/Mol-Kelvin    Cal/Mol-Kelvin
 Total                  132.110             46.132            106.115
 Electronic               0.000              0.000              0.000
 Translational            0.889              2.981             41.488
 Rotational               0.889              2.981             31.611
 Vibrational            130.333             40.170             33.016
 Vibration     1          0.595              1.978              4.825
 Vibration     2          0.600              1.963              3.916
 Vibration     3          0.607              1.937              3.192
 Vibration     4          0.619              1.901              2.655
 Vibration     5          0.623              1.888              2.516
 Vibration     6          0.639              1.837              2.117
 Vibration     7          0.672              1.734              1.618
 Vibration     8          0.689              1.683              1.444
 Vibration     9          0.737              1.547              1.107
 Vibration    10          0.753              1.505              1.024
 Vibration    11          0.766              1.470              0.963
 Vibration    12          0.803              1.375              0.816
 Vibration    13          0.819              1.337              0.763
 Vibration    14          0.830              1.310              0.729
 Vibration    15          0.869              1.220              0.625
 Vibration    16          0.907              1.135              0.540

                           ! Non-Optimized Parameters !
 Normal termination of Gaussian 16 at Wed May 17 10:46:19 2023.
