 Gaussian 16, Revision A.03,
 Gaussian 16:  ES64L-G16RevA.03 25-Dec-2016

 -----------------------------
 # opt freq b3lyp/6-31g(2df,p)
 -----------------------------

 -------------------
 Title Card Required
 -------------------
 Symbolic Z-matrix:
 Charge =  0 Multiplicity = 1

 SCF Done:  E(RB3LYP) =  -856.465348099     A.U. after   17 cycles
 SCF Done:  E(RB3LYP) =  -856.558247948     A.U. after   14 cycles
 SCF Done:  E(RB3LYP) =  -856.621660511     A.U. after   15 cycles
 SCF Done:  E(RB3LYP) =  -856.680681466     A.U. after   14 cycles
 SCF Done:  E(RB3LYP) =  -856.724790757     A.U. after   14 cycles
 SCF Done:  E(RB3LYP) =  -856.747727540     A.U. after   14 cycles
 SCF Done:  E(RB3LYP) =  -856.758734975     A.U. after   14 cycles
 SCF Done:  E(RB3LYP) =  -856.763124534     A.U. after   14 cycles
 SCF Done:  E(RB3LYP) =  -856.766457998     A.U. after   15 cycles
 SCF Done:  E(RB3LYP) =  -856.767843388     A.U. after   14 cycles
 SCF Done:  E(RB3LYP) =  -856.770876079     A.U. after   11 cycles
 SCF Done:  E(RB3LYP) =  -856.771377128     A.U. after   12 cycles
 SCF Done:  E(RB3LYP) =  -856.771445038     A.U. after   11 cycles
 SCF Done:  E(RB3LYP) =  -856.771445010     A.U. after   11 cycles
 SCF Done:  E(RB3LYP) =  -856.771473681     A.U. after   10 cycles
 SCF Done:  E(RB3LYP) =  -856.771473789     A.U. after    8 cycles
 SCF Done:  E(RB3LYP) =  -856.771475352     A.U. after    9 cycles
 SCF Done:  E(RB3LYP) =  -856.771475361     A.U. after    7 cycles
 SCF Done:  E(RB3LYP) =  -856.771475471     A.U. after    7 cycles
 Optimization completed.
    -- Stationary point found.
 Normal termination of Gaussian 16 at Thu May 18 02:43:41 2023.

 ----------------------------------------------------------------------
 #N Geom=AllCheck Guess=TCheck SCRF=Check GenChk RB3LYP/6-31G(2df,p) Fr
 eq
 ----------------------------------------------------------------------

 Structure from the checkpoint file:  "CdCONdc1ccc2nnc-2c2cqCrcccc2cc1.chk"
 -------------------
 Title Card Required
 -------------------
 Charge =  0 Multiplicity = 1

                         Standard orientation:
 ---------------------------------------------------------------------
 Center     Atomic      Atomic             Coordinates (Angstroms)
 Number     Number       Type             X           Y           Z
 ---------------------------------------------------------------------
      1          6           0       -6.059815   -0.310646    1.266824
      2          6           0       -5.231297    0.359389    0.477478
      3          8           0       -3.883938    0.109997    0.486446
      4          7           0       -3.211105    0.932740   -0.413303
      5          6           0       -1.949852    0.693352   -0.397634
      6          6           0       -1.166998   -0.343781    0.276497
      7          6           0       -1.099941   -1.627665   -0.132414
      8          6           0        0.236949   -2.121189   -0.240906
      9          7           0        0.789534   -3.220710   -0.637288
     10          7           0        2.150644   -2.433404   -0.753957
     11          6           0        1.554056   -1.354273   -0.356922
     12          6           0        2.076774   -0.007159   -0.099917
     13          6           0        3.303142    0.060255    0.625043
     14          6           0        4.078978   -1.173993    1.025001
     15          6           0        3.813926    1.298999    0.999798
     16          6           0        3.166179    2.477205    0.653764
     17          6           0        2.004161    2.420561   -0.095055
     18          6           0        1.417445    1.203015   -0.482734
     19          6           0        0.257991    1.467659   -1.413685
     20          6           0       -1.087922    1.410932   -1.349098
     21          1           0       -7.118753   -0.093949    1.236730
     22          1           0       -5.708480   -1.076317    1.947247
     23          1           0       -5.523624    1.134417   -0.221815
     24          1           0       -0.302163    0.055195    0.795342
     25          1           0       -1.911446   -2.135167   -0.644586
     26          1           0        3.449826   -1.912936    1.528706
     27          1           0        4.895731   -0.897800    1.696127
     28          1           0        4.502117   -1.681770    0.155042
     29          1           0        4.736460    1.335275    1.569556
     30          1           0        3.572804    3.437190    0.953432
     31          1           0        1.519572    3.342495   -0.398350
     32          1           0        0.613697    2.038859   -2.270981
     33          1           0       -1.640398    1.908172   -2.142430
 ---------------------------------------------------------------------

 SCF Done:  E(RB3LYP) =  -856.771475471     A.U. after    1 cycles

 The electronic state is 1-A.
 Alpha  occ. eigenvalues --  -19.21319 -14.39854 -14.35438 -14.35158 -10.25190
 Alpha  occ. eigenvalues --  -10.24769 -10.24625 -10.24055 -10.23244 -10.22799
 Alpha  occ. eigenvalues --  -10.22546 -10.22340 -10.22057 -10.21947 -10.21859
 Alpha  occ. eigenvalues --  -10.20658 -10.20353 -10.20007 -10.18412 -10.17381
 Alpha  occ. eigenvalues --   -1.12010  -1.01631  -0.91439  -0.88328  -0.83785
 Alpha  occ. eigenvalues --   -0.81431  -0.80603  -0.77503  -0.76520  -0.74404
 Alpha  occ. eigenvalues --   -0.70239  -0.68362  -0.66233  -0.62227  -0.60784
 Alpha  occ. eigenvalues --   -0.58574  -0.57691  -0.56192  -0.53631  -0.51997
 Alpha  occ. eigenvalues --   -0.51129  -0.49230  -0.48338  -0.47147  -0.46266
 Alpha  occ. eigenvalues --   -0.45580  -0.44880  -0.44462  -0.43373  -0.42614
 Alpha  occ. eigenvalues --   -0.42087  -0.41877  -0.41244  -0.39762  -0.39587
 Alpha  occ. eigenvalues --   -0.37850  -0.36671  -0.36273  -0.35496  -0.34813
 Alpha  occ. eigenvalues --   -0.30748  -0.30600  -0.29788  -0.28768  -0.27053
 Alpha  occ. eigenvalues --   -0.25872  -0.25758  -0.23337  -0.22249
 Alpha virt. eigenvalues --   -0.10156  -0.06398  -0.04012  -0.01862  -0.01368
 Alpha virt. eigenvalues --    0.03050   0.04315   0.06220   0.08277   0.08567
 Alpha virt. eigenvalues --    0.08798   0.09901   0.11928   0.12969   0.13736

 Mulliken charges:
               1
     1  C   -0.405710
     2  C    0.169738
     3  O   -0.211147
     4  N   -0.209132
     5  C    0.300179
     6  C   -0.165326
     7  C   -0.182025
     8  C    0.263876
     9  N   -0.272120
    10  N   -0.265656
    11  C    0.241243
    12  C   -0.031594
    13  C    0.253298
    14  C   -0.487776
    15  C   -0.184999
    16  C   -0.124870
    17  C   -0.144862
    18  C    0.111291
    19  C   -0.183445
    20  C   -0.099627
    21  H    0.123268
    22  H    0.116762
    23  H    0.122392
    24  H    0.137262
    25  H    0.139551
    26  H    0.140953
    27  H    0.113883
    28  H    0.163468
    29  H    0.105086
    30  H    0.110047
    31  H    0.106647
    32  H    0.127200
    33  H    0.122147
 Sum of Mulliken charges =  -0.00000

 Dipole moment (field-independent basis, Debye):
    X=              0.2071    Y=              4.4682    Z=              0.9376  Tot=              4.5702
 Quadrupole moment (field-independent basis, Debye-Ang):
   XX=           -106.1991   YY=           -122.8928   ZZ=           -112.9591
   XY=             10.0442   XZ=              6.8249   YZ=             -6.1979

  Exact polarizability: 322.243   5.447 207.609   0.475  -4.266 123.465
 Approx polarizability: 459.737 -14.969 393.521  -5.816   8.983 213.769

                      1                      2                      3
                      A                      A                      A
 Frequencies --     26.8451                47.6771                69.0766
 Red. masses --      5.1333                 3.8551                 5.3135
 Frc consts  --      0.0022                 0.0052                 0.0149
 IR Inten    --      0.2160                 0.5942                 0.3227

                      4                      5                      6
                      A                      A                      A
 Frequencies --     76.1843                83.5239               108.9947
 Red. masses --      3.6562                 5.1428                 2.3100
 Frc consts  --      0.0125                 0.0211                 0.0162
 IR Inten    --      0.3035                 2.2383                 3.1923

                      7                      8                      9
                      A                      A                      A
 Frequencies --    147.6929               164.4437               166.1388
 Red. masses --      4.3179                 1.3692                 3.3365
 Frc consts  --      0.0555                 0.0218                 0.0543
 IR Inten    --      1.5992                 1.8988                 2.2313

                     10                     11                     12
                      A                      A                      A
 Frequencies --    199.4956               212.0212               236.4155
 Red. masses --      2.8723                 5.5362                 4.3613
 Frc consts  --      0.0674                 0.1466                 0.1436
 IR Inten    --      0.3392                 0.6453                 3.5727

                     13                     14                     15
                      A                      A                      A
 Frequencies --    269.8249               287.8586               302.6038
 Red. masses --      3.9413                 3.4947                 6.0893
 Frc consts  --      0.1691                 0.1706                 0.3285
 IR Inten    --      4.9113                 3.7050                 1.0887

                     16                     17                     18
                      A                      A                      A
 Frequencies --    308.1058               362.6112               384.5770
 Red. masses --      4.4833                 4.3806                 4.8108
 Frc consts  --      0.2508                 0.3394                 0.4192
 IR Inten    --      6.0654                 6.5586                 0.1976

                     19                     20                     21
                      A                      A                      A
 Frequencies --    409.3810               421.6299               463.9894
 Red. masses --      3.9272                 5.6026                 4.0795
 Frc consts  --      0.3878                 0.5868                 0.5175
 IR Inten    --      4.5133                 7.7094                 8.5536

                     22                     23                     24
                      A                      A                      A
 Frequencies --    492.1289               519.7185               522.1225
 Red. masses --      4.2450                 3.6331                 5.3347
 Frc consts  --      0.6057                 0.5782                 0.8569
 IR Inten    --      5.5238                 7.1130                 1.1928

                     25                     26                     27
                      A                      A                      A
 Frequencies --    557.3775               565.0617               589.6231
 Red. masses --      4.8326                 5.0894                 3.9171
 Frc consts  --      0.8846                 0.9574                 0.8024
 IR Inten    --      1.3151                 1.4439                 3.5095

                     28                     29                     30
                      A                      A                      A
 Frequencies --    600.2380               644.8235               685.8206
 Red. masses --      4.5657                 4.7570                 6.5683
 Frc consts  --      0.9692                 1.1654                 1.8202
 IR Inten    --      4.5455                 0.8279                 0.0682

                     31                     32                     33
                      A                      A                      A
 Frequencies --    705.5287               709.4515               747.9360
 Red. masses --      1.7207                 4.1543                 6.1046
 Frc consts  --      0.5046                 1.2319                 2.0120
 IR Inten    --      1.4465                 3.1924                 1.3562

                     34                     35                     36
                      A                      A                      A
 Frequencies --    763.7075               776.7698               786.9479
 Red. masses --      5.4144                 2.4306                 1.9573
 Frc consts  --      1.8606                 0.8641                 0.7142
 IR Inten    --      3.7748                 2.9879                13.2567

                     37                     38                     39
                      A                      A                      A
 Frequencies --    819.2801               829.7240               860.9834
 Red. masses --      2.2268                 2.4170                 1.4091
 Frc consts  --      0.8806                 0.9804                 0.6154
 IR Inten    --     12.2529                11.6099                39.5685

                     40                     41                     42
                      A                      A                      A
 Frequencies --    878.3186               895.4158               919.0196
 Red. masses --      2.2479                 3.0124                 1.5152
 Frc consts  --      1.0217                 1.4230                 0.7540
 IR Inten    --     34.9113                 2.6813                 6.6263

                     43                     44                     45
                      A                      A                      A
 Frequencies --    933.7655               958.0088               973.9640
 Red. masses --      2.5249                 4.8527                 1.2886
 Frc consts  --      1.2971                 2.6240                 0.7202
 IR Inten    --     19.9859                99.3835                 0.1285

                     46                     47                     48
                      A                      A                      A
 Frequencies --    998.9767              1008.1420              1009.9188
 Red. masses --      1.1155                 2.4348                 1.5304
 Frc consts  --      0.6559                 1.4580                 0.9197
 IR Inten    --     15.0782                 3.8552                 1.0072

                     49                     50                     51
                      A                      A                      A
 Frequencies --   1030.1203              1038.4091              1061.9031
 Red. masses --      1.2754                 1.7659                 1.5962
 Frc consts  --      0.7974                 1.1219                 1.0605
 IR Inten    --     58.3599                 0.5847                29.9165

                     52                     53                     54
                      A                      A                      A
 Frequencies --   1064.1884              1129.1983              1164.0014
 Red. masses --      4.6430                 2.1898                 2.4538
 Frc consts  --      3.0980                 1.6451                 1.9589
 IR Inten    --    378.7253                 1.0295                76.4404

                     55                     56                     57
                      A                      A                      A
 Frequencies --   1186.2645              1212.7434              1227.0652
 Red. masses --      1.6646                 2.1683                 1.7776
 Frc consts  --      1.3801                 1.8789                 1.5770
 IR Inten    --     72.0304                94.0318                45.2505

                     58                     59                     60
                      A                      A                      A
 Frequencies --   1245.7062              1253.0574              1267.8232
 Red. masses --      3.7610                 1.7049                 2.6884
 Frc consts  --      3.4386                 1.5773                 2.5460
 IR Inten    --     62.9164                 9.1870                 1.0313

                     61                     62                     63
                      A                      A                      A
 Frequencies --   1293.8593              1320.3325              1325.9231
 Red. masses --      3.1791                 1.1661                 1.7165
 Frc consts  --      3.1357                 1.1977                 1.7780
 IR Inten    --      2.3691                 2.7723                 3.2398

                     64                     65                     66
                      A                      A                      A
 Frequencies --   1351.0011              1369.1070              1414.1601
 Red. masses --      1.6808                 3.2492                 1.5566
 Frc consts  --      1.8075                 3.5884                 1.8341
 IR Inten    --      6.7638                 1.9450                 7.2841

                     67                     68                     69
                      A                      A                      A
 Frequencies --   1421.6731              1424.8490              1442.7993
 Red. masses --      1.2259                 1.1875                 2.4165
 Frc consts  --      1.4599                 1.4204                 2.9638
 IR Inten    --      2.7551                29.2970                 2.8800

                     70                     71                     72
                      A                      A                      A
 Frequencies --   1468.7316              1480.0017              1493.9702
 Red. masses --      1.8106                 1.0791                 1.2341
 Frc consts  --      2.3012                 1.3926                 1.6228
 IR Inten    --      9.1665                 7.5669                25.8285

                     73                     74                     75
                      A                      A                      A
 Frequencies --   1581.8030              1600.5354              1619.6833
 Red. masses --      8.3113                 7.4230                 4.9322
 Frc consts  --     12.2524                11.2036                 7.6234
 IR Inten    --     29.7199                 6.5478                17.7420

                     76                     77                     78
                      A                      A                      A
 Frequencies --   1629.2250              1645.3718              1667.0867
 Red. masses --      5.3219                 8.7094                11.1118
 Frc consts  --      8.3229                13.8920                18.1950
 IR Inten    --      4.8659                18.7490                48.6558

                     79                     80                     81
                      A                      A                      A
 Frequencies --   1693.6367              1721.5199              3051.3430
 Red. masses --      8.4867                 5.6033                 1.0361
 Frc consts  --     14.3427                 9.7840                 5.6835
 IR Inten    --     80.9649               173.1640                16.4312

                     82                     83                     84
                      A                      A                      A
 Frequencies --   3116.0517              3120.4205              3126.4413
 Red. masses --      1.0989                 1.0838                 1.1027
 Frc consts  --      6.2864                 6.2178                 6.3507
 IR Inten    --      5.9733                 2.6459                16.4725

                     85                     86                     87
                      A                      A                      A
 Frequencies --   3165.1882              3173.3686              3176.7250
 Red. masses --      1.0900                 1.0847                 1.0582
 Frc consts  --      6.4338                 6.4359                 6.2916
 IR Inten    --      4.0235                 0.2142                 4.2184

                     88                     89                     90
                      A                      A                      A
 Frequencies --   3178.7612              3182.5511              3186.8383
 Red. masses --      1.0897                 1.0900                 1.0868
 Frc consts  --      6.4875                 6.5047                 6.5030
 IR Inten    --      2.1068                13.7760                 0.6480

                     91                     92                     93
                      A                      A                      A
 Frequencies --   3197.9734              3207.3949              3271.8454
 Red. masses --      1.0971                 1.0969                 1.1158
 Frc consts  --      6.6108                 6.6483                 7.0377
 IR Inten    --     17.8203                14.2168                 3.4979

 - Thermochemistry -
 -------------------
 Temperature   298.150 Kelvin.  Pressure   1.00000 Atm.
 Atom     1 has atomic number  6 and mass  12.00000

 Molecular mass:   263.10586 amu.
 Principal axes and moments of inertia in atomic units:
                           1         2         3
     Eigenvalues --  2887.486588820.50758**********
           X            0.99998   0.00483   0.00403
           Y           -0.00474   0.99978  -0.02055
           Z           -0.00413   0.02053   0.99978
 This molecule is an asymmetric top.
 Rotational symmetry number  1.
 Warning -- assumption of classical behavior for rotation
           may cause significant error
 Rotational temperatures (Kelvin)      0.03000     0.00982     0.00817
 Rotational constants (GHZ):           0.62502     0.20461     0.17026
 Zero-point vibrational energy     660951.8 (Joules/Mol)
                                  157.97128 (Kcal/Mol)
 Warning -- explicit consideration of  28 degrees of freedom as
           vibrations may cause significant error
 Vibrational temperatures:     38.62    68.60    99.39   109.61   120.17
          (Kelvin)            156.82   212.50   236.60   239.04   287.03
                              305.05   340.15   388.22   414.16   435.38
                              443.30   521.72   553.32   589.01   606.63
                              667.58   708.06   747.76   751.22   801.94
                              813.00   848.34   863.61   927.76   986.74
                             1015.10  1020.74  1076.11  1098.80  1117.60
                             1132.24  1178.76  1193.79  1238.76  1263.70
                             1288.30  1322.26  1343.48  1378.36  1401.32
                             1437.30  1450.49  1453.05  1482.11  1494.04
                             1527.84  1531.13  1624.66  1674.74  1706.77
                             1744.87  1765.47  1792.29  1802.87  1824.11
                             1861.58  1899.66  1907.71  1943.79  1969.84
                             2034.66  2045.47  2050.04  2075.87  2113.18
                             2129.39  2149.49  2275.86  2302.81  2330.36
                             2344.09  2367.32  2398.57  2436.77  2476.88
                             4390.20  4483.30  4489.59  4498.25  4554.00
                             4565.77  4570.60  4573.53  4578.98  4585.15
                             4601.17  4614.73  4707.46

 Zero-point correction=                           0.251743 (Hartree/Particle)
 Thermal correction to Energy=                    0.269229
 Thermal correction to Enthalpy=                  0.270173
 Thermal correction to Gibbs Free Energy=         0.205755
 Sum of electronic and zero-point Energies=           -856.519732
 Sum of electronic and thermal Energies=              -856.502246
 Sum of electronic and thermal Enthalpies=            -856.501302
 Sum of electronic and thermal Free Energies=         -856.565720

                     E (Thermal)             CV                S
                      KCal/Mol        Cal/Mol-Kelvin    Cal/Mol-Kelvin
 Total                  168.944             67.378            135.579
 Electronic               0.000              0.000              0.000
 Translational            0.889              2.981             42.602
 Rotational               0.889              2.981             33.956
 Vibrational            167.166             61.417             59.021
 Vibration     1          0.593              1.984              6.050
 Vibration     2          0.595              1.978              4.911
 Vibration     3          0.598              1.969              4.179
 Vibration     4          0.599              1.965              3.987
 Vibration     5          0.600              1.961              3.806
 Vibration     6          0.606              1.942              3.287
 Vibration     7          0.617              1.905              2.702
 Vibration     8          0.623              1.886              2.498
 Vibration     9          0.624              1.884              2.479
 Vibration    10          0.638              1.841              2.138
 Vibration    11          0.643              1.823              2.026
 Vibration    12          0.655              1.785              1.830
 Vibration    13          0.674              1.729              1.597
 Vibration    14          0.685              1.696              1.487
 Vibration    15          0.694              1.669              1.402
 Vibration    16          0.698              1.658              1.372
 Vibration    17          0.736              1.549              1.111
 Vibration    18          0.754              1.503              1.021
 Vibration    19          0.774              1.450              0.929
 Vibration    20          0.784              1.423              0.886
 Vibration    21          0.822              1.330              0.755
 Vibration    22          0.848              1.267              0.678
 Vibration    23          0.875              1.206              0.611
 Vibration    24          0.877              1.201              0.605
 Vibration    25          0.913              1.124              0.529
 Vibration    26          0.921              1.107              0.514
 Vibration    27          0.947              1.054              0.468
 Vibration    28          0.958              1.031              0.449

 Optimization completed.
    -- Stationary point found.
 Normal termination of Gaussian 16 at Thu May 18 07:28:17 2023.
