 Gaussian 16, Revision A.03,
 Gaussian 16:  ES64L-G16RevA.03 25-Dec-2016

 -----------------------------
 # opt freq b3lyp/6-31g(2df,p)
 -----------------------------

 -------------------
 Title Card Required
 -------------------
 Symbolic Z-matrix:
 Charge =  0 Multiplicity = 1

 SCF Done:  E(RB3LYP) =  -1002.90671660     A.U. after   17 cycles
 SCF Done:  E(RB3LYP) =  -1002.98661216     A.U. after   13 cycles
 SCF Done:  E(RB3LYP) =  -1003.03240958     A.U. after   17 cycles
 SCF Done:  E(RB3LYP) =  -1003.06766263     A.U. after   14 cycles
 SCF Done:  E(RB3LYP) =  -1003.08830415     A.U. after   13 cycles
 SCF Done:  E(RB3LYP) =  -1003.10034460     A.U. after   14 cycles
 SCF Done:  E(RB3LYP) =  -1003.11050275     A.U. after   13 cycles
 SCF Done:  E(RB3LYP) =  -1003.11601104     A.U. after   13 cycles
 SCF Done:  E(RB3LYP) =  -1003.11919871     A.U. after   13 cycles
 SCF Done:  E(RB3LYP) =  -1003.12009034     A.U. after   13 cycles
 SCF Done:  E(RB3LYP) =  -1003.13642025     A.U. after   10 cycles
 SCF Done:  E(RB3LYP) =  -1003.13642113     A.U. after   10 cycles
 SCF Done:  E(RB3LYP) =  -1003.13642143     A.U. after    8 cycles
 SCF Done:  E(RB3LYP) =  -1003.13642164     A.U. after    8 cycles
 SCF Done:  E(RB3LYP) =  -1003.13642179     A.U. after    8 cycles
 SCF Done:  E(RB3LYP) =  -1003.13642185     A.U. after    7 cycles
 SCF Done:  E(RB3LYP) =  -1003.13642192     A.U. after    7 cycles
 SCF Done:  E(RB3LYP) =  -1003.13642196     A.U. after    6 cycles
 SCF Done:  E(RB3LYP) =  -1003.13642198     A.U. after    6 cycles
 Optimization completed.
    -- Stationary point found.
 Normal termination of Gaussian 16 at Fri May 19 19:59:25 2023.

 ----------------------------------------------------------------------
 #N Geom=AllCheck Guess=TCheck SCRF=Check GenChk RB3LYP/6-31G(2df,p) Fr
 eq
 ----------------------------------------------------------------------

 Structure from the checkpoint file:  "CdCqCNNNCrC1Cdc2ccccc2dCNdCdNNN1O.chk"
 -------------------
 Title Card Required
 -------------------
 Charge =  0 Multiplicity = 1

                         Standard orientation:
 ---------------------------------------------------------------------
 Center     Atomic      Atomic             Coordinates (Angstroms)
 Number     Number       Type             X           Y           Z
 ---------------------------------------------------------------------
      1          6           0        2.064293   -1.839682    1.137784
      2          6           0        1.370613   -0.885211    0.522722
      3          6           0        2.037647    0.332127   -0.090195
      4          7           0        3.483210    0.168640   -0.214519
      5          7           0        4.015961    1.344843   -0.917999
      6          7           0        5.407776    1.113678   -1.082239
      7          6           0        6.215825    1.407937    0.097428
      8          6           0       -0.135821   -0.889067    0.305595
      9          6           0       -0.806222    0.289363    0.961918
     10          6           0       -1.840894    1.094676    0.579601
     11          6           0       -2.139453    2.164225    1.541007
     12          6           0       -2.944589    3.213209    1.283217
     13          6           0       -3.596477    3.324470    0.005113
     14          6           0       -3.459170    2.331977   -0.896820
     15          6           0       -2.685502    1.114722   -0.657082
     16          6           0       -2.922803    0.162119   -1.623141
     17          7           0       -2.409154   -1.075577   -1.818235
     18          6           0       -2.173777   -2.174010   -1.377709
     19          7           0       -1.745214   -3.296944   -1.086832
     20          7           0       -0.668529   -3.236543   -0.137717
     21          7           0       -0.930288   -2.088623    0.712502
     22          8           0       -0.650387   -2.452958    2.052652
     23          1           0        3.140812   -1.752908    1.227528
     24          1           0        1.593133   -2.709470    1.572031
     25          1           0        1.848738    1.208704    0.547827
     26          1           0        1.562932    0.570996   -1.058757
     27          1           0        3.657567   -0.587936   -0.873719
     28          1           0        3.887066    2.099446   -0.232764
     29          1           0        5.694941    1.674651   -1.875338
     30          1           0        5.917949    0.731492    0.902099
     31          1           0        6.109023    2.447048    0.457957
     32          1           0        7.270416    1.230547   -0.134819
     33          1           0       -0.284190   -0.834936   -0.773608
     34          1           0       -0.400278    0.501209    1.948159
     35          1           0       -1.626701    2.102307    2.495391
     36          1           0       -3.092692    3.985064    2.031201
     37          1           0       -4.209334    4.190645   -0.217790
     38          1           0       -3.977387    2.397998   -1.848269
     39          1           0       -3.562957    0.469051   -2.445415
     40          1           0       -0.779744   -4.042290    0.473465
     41          1           0       -1.524550   -2.445398    2.462253
 ---------------------------------------------------------------------

 SCF Done:  E(RB3LYP) =  -1003.13642198     A.U. after    1 cycles

 The electronic state is 1-A.
 Alpha  occ. eigenvalues --  -19.18988 -14.40917 -14.39745 -14.37417 -14.36261
 Alpha  occ. eigenvalues --  -14.35965 -14.33700 -14.33024 -10.28519 -10.24629
 Alpha  occ. eigenvalues --  -10.22543 -10.21011 -10.20962 -10.20461 -10.19792
 Alpha  occ. eigenvalues --  -10.18827 -10.18802 -10.18673 -10.18412 -10.18326
 Alpha  occ. eigenvalues --  -10.18092 -10.16096  -1.10088  -1.01418  -0.99201
 Alpha  occ. eigenvalues --   -0.96592  -0.88295  -0.87451  -0.85218  -0.82239
 Alpha  occ. eigenvalues --   -0.78450  -0.77478  -0.76082  -0.72569  -0.71177
 Alpha  occ. eigenvalues --   -0.69123  -0.65980  -0.64705  -0.63365  -0.59905
 Alpha  occ. eigenvalues --   -0.58919  -0.56304  -0.55066  -0.52257  -0.51627
 Alpha  occ. eigenvalues --   -0.49999  -0.49499  -0.49181  -0.48717  -0.47405
 Alpha  occ. eigenvalues --   -0.46808  -0.46350  -0.44467  -0.44290  -0.43910
 Alpha  occ. eigenvalues --   -0.42975  -0.42141  -0.41711  -0.40344  -0.39877
 Alpha  occ. eigenvalues --   -0.39097  -0.38510  -0.37437  -0.37234  -0.36564
 Alpha  occ. eigenvalues --   -0.36309  -0.35201  -0.33854  -0.33688  -0.32528
 Alpha  occ. eigenvalues --   -0.30947  -0.29818  -0.28579  -0.27954  -0.25433
 Alpha  occ. eigenvalues --   -0.24355  -0.23400  -0.22011  -0.19326  -0.17713
 Alpha virt. eigenvalues --   -0.07091  -0.01521   0.01277   0.02425   0.03744
 Alpha virt. eigenvalues --    0.06005   0.07683   0.08615   0.09570   0.09636
 Alpha virt. eigenvalues --    0.10378   0.10671   0.11936   0.13282   0.13405

 Mulliken charges:
               1
     1  C   -0.406756
     2  C    0.274405
     3  C   -0.177330
     4  N   -0.278179
     5  N   -0.270832
     6  N   -0.244137
     7  C   -0.308809
     8  C   -0.086121
     9  C   -0.164894
    10  C    0.166140
    11  C   -0.120051
    12  C   -0.130199
    13  C   -0.153940
    14  C   -0.100502
    15  C    0.130297
    16  C   -0.079585
    17  N   -0.260705
    18  C    0.426032
    19  N   -0.293622
    20  N   -0.217209
    21  N   -0.046397
    22  O   -0.422204
    23  H    0.119283
    24  H    0.117962
    25  H    0.113626
    26  H    0.098517
    27  H    0.232796
    28  H    0.214135
    29  H    0.231554
    30  H    0.145751
    31  H    0.091297
    32  H    0.119961
    33  H    0.119155
    34  H    0.094413
    35  H    0.093890
    36  H    0.095452
    37  H    0.095486
    38  H    0.094050
    39  H    0.122628
    40  H    0.254802
    41  H    0.309839
 Sum of Mulliken charges =  -0.00000

 Dipole moment (field-independent basis, Debye):
    X=             -0.8175    Y=              1.7089    Z=              1.3763  Tot=              2.3415
 Quadrupole moment (field-independent basis, Debye-Ang):
   XX=           -117.7217   YY=           -123.6051   ZZ=           -124.1441
   XY=              5.2327   XZ=             -1.3889   YZ=             -5.7717

  Exact polarizability: 225.416 -42.400 267.766  28.971  12.717 178.661
 Approx polarizability: 315.600 -83.256 469.912  72.444  32.986 337.246

                      1                      2                      3
                      A                      A                      A
 Frequencies --     19.0292                24.8610                31.6296
 Red. masses --      4.3189                 4.2089                 3.7978
 Frc consts  --      0.0009                 0.0015                 0.0022
 IR Inten    --      0.5308                 0.4387                 0.7335

                      4                      5                      6
                      A                      A                      A
 Frequencies --     59.5294                64.7061                72.4206
 Red. masses --      3.4540                 4.5079                 4.2814
 Frc consts  --      0.0072                 0.0111                 0.0132
 IR Inten    --      3.2411                 0.5363                 2.6001

                      7                      8                      9
                      A                      A                      A
 Frequencies --     87.2839               109.8935               116.5154
 Red. masses --      3.1341                 4.3005                 4.9005
 Frc consts  --      0.0141                 0.0306                 0.0392
 IR Inten    --      1.3511                 1.2734                 2.3519

                     10                     11                     12
                      A                      A                      A
 Frequencies --    142.7281               161.6687               178.0657
 Red. masses --      4.2157                 5.0058                 4.4576
 Frc consts  --      0.0506                 0.0771                 0.0833
 IR Inten    --      1.6352                 3.9236                 0.7558

                     13                     14                     15
                      A                      A                      A
 Frequencies --    191.7067               219.2751               224.7697
 Red. masses --      2.9601                 1.3845                 6.0109
 Frc consts  --      0.0641                 0.0392                 0.1789
 IR Inten    --      1.1166                 1.0454                 1.9045

                     16                     17                     18
                      A                      A                      A
 Frequencies --    251.7379               282.7112               287.1798
 Red. masses --      5.8387                 4.5441                 3.6883
 Frc consts  --      0.2180                 0.2140                 0.1792
 IR Inten    --      7.0148                 5.2411                 0.5311

                     19                     20                     21
                      A                      A                      A
 Frequencies --    319.2453               343.2443               359.8081
 Red. masses --      3.7313                 4.0953                 4.0064
 Frc consts  --      0.2241                 0.2843                 0.3056
 IR Inten    --      2.3102                 1.4697                 9.5089

                     22                     23                     24
                      A                      A                      A
 Frequencies --    369.0105               392.6461               401.3123
 Red. masses --      4.3878                 1.8771                 2.6646
 Frc consts  --      0.3520                 0.1705                 0.2528
 IR Inten    --      0.8840                61.3186                 9.7865

                     25                     26                     27
                      A                      A                      A
 Frequencies --    409.0409               442.2559               448.7630
 Red. masses --      2.5102                 3.8540                 3.0117
 Frc consts  --      0.2475                 0.4441                 0.3574
 IR Inten    --      5.2293                 9.0664                10.9579

                     28                     29                     30
                      A                      A                      A
 Frequencies --    470.1996               494.7138               515.0612
 Red. masses --      4.7459                 4.5240                 4.2759
 Frc consts  --      0.6182                 0.6524                 0.6683
 IR Inten    --     19.9348                11.4203                 2.8329

                     31                     32                     33
                      A                      A                      A
 Frequencies --    536.7576               560.6766               578.0333
 Red. masses --      3.5987                 3.7993                 3.8953
 Frc consts  --      0.6109                 0.7037                 0.7668
 IR Inten    --      3.2723                15.7740                10.1762

                     34                     35                     36
                      A                      A                      A
 Frequencies --    602.7010               628.9294               668.5735
 Red. masses --      4.8885                 6.3109                 3.7703
 Frc consts  --      1.0462                 1.4708                 0.9929
 IR Inten    --      5.0389                12.6434                15.1670

                     37                     38                     39
                      A                      A                      A
 Frequencies --    695.1048               724.3957               742.9057
 Red. masses --      2.3061                 1.6138                 2.9787
 Frc consts  --      0.6565                 0.4990                 0.9686
 IR Inten    --      2.4234                17.2392                 0.1628

                     40                     41                     42
                      A                      A                      A
 Frequencies --    749.0276               761.4222               772.0318
 Red. masses --      1.6127                 1.7949                 3.8238
 Frc consts  --      0.5331                 0.6131                 1.3428
 IR Inten    --     19.9333                51.3895                24.8469

                     43                     44                     45
                      A                      A                      A
 Frequencies --    787.1046               809.8434               840.2464
 Red. masses --      2.6900                 1.7403                 2.4530
 Frc consts  --      0.9819                 0.6725                 1.0204
 IR Inten    --     86.7799                31.8547                27.9472

                     46                     47                     48
                      A                      A                      A
 Frequencies --    873.3483               876.5692               889.9840
 Red. masses --      1.5121                 3.1085                 2.7219
 Frc consts  --      0.6795                 1.4072                 1.2703
 IR Inten    --     44.7776                 4.6322                19.4218

                     49                     50                     51
                      A                      A                      A
 Frequencies --    904.6271               910.9694               921.9088
 Red. masses --      1.5080                 2.7540                 5.0060
 Frc consts  --      0.7271                 1.3466                 2.5068
 IR Inten    --     22.6950                13.9648                18.9549

                     52                     53                     54
                      A                      A                      A
 Frequencies --    951.2736               957.3686               963.5010
 Red. masses --      1.3049                 1.3476                 2.3760
 Frc consts  --      0.6957                 0.7277                 1.2996
 IR Inten    --      1.3587                26.7471                10.1987

                     55                     56                     57
                      A                      A                      A
 Frequencies --    972.8565               981.3538               992.4840
 Red. masses --      1.2897                 2.5792                 2.0459
 Frc consts  --      0.7192                 1.4635                 1.1873
 IR Inten    --      1.1299                22.4808                 4.4209

                     58                     59                     60
                      A                      A                      A
 Frequencies --   1007.4306              1026.4352              1037.7338
 Red. masses --      3.6231                 4.0549                 3.0178
 Frc consts  --      2.1665                 2.5171                 1.9148
 IR Inten    --     15.4370                55.4038                 5.2195

                     61                     62                     63
                      A                      A                      A
 Frequencies --   1049.2375              1091.2054              1102.1128
 Red. masses --      1.7964                 2.7817                 3.0351
 Frc consts  --      1.1652                 1.9515                 2.1720
 IR Inten    --     20.2912                10.3852                25.3591

                     64                     65                     66
                      A                      A                      A
 Frequencies --   1113.4590              1146.1213              1150.6451
 Red. masses --      3.1985                 2.1557                 2.1264
 Frc consts  --      2.3364                 1.6684                 1.6587
 IR Inten    --      7.4801                13.7655                 0.9701

                     67                     68                     69
                      A                      A                      A
 Frequencies --   1167.3890              1185.0824              1197.4001
 Red. masses --      2.0414                 1.4244                 1.8172
 Frc consts  --      1.6391                 1.1786                 1.5351
 IR Inten    --      3.1002                 4.0158                32.0202

                     70                     71                     72
                      A                      A                      A
 Frequencies --   1223.4774              1229.4532              1235.4028
 Red. masses --      1.6725                 1.5641                 1.7140
 Frc consts  --      1.4750                 1.3929                 1.5413
 IR Inten    --     16.2229                27.3732                 1.6824

                     73                     74                     75
                      A                      A                      A
 Frequencies --   1238.2378              1271.0678              1303.0712
 Red. masses --      1.3330                 1.4155                 1.3454
 Frc consts  --      1.2041                 1.3474                 1.3460
 IR Inten    --     18.0728                 4.7249                 3.1616

                     76                     77                     78
                      A                      A                      A
 Frequencies --   1365.4327              1377.6489              1381.3846
 Red. masses --      1.5190                 1.1678                 1.4132
 Frc consts  --      1.6686                 1.3059                 1.5888
 IR Inten    --     16.2577                35.1138                 4.3782

                     79                     80                     81
                      A                      A                      A
 Frequencies --   1390.3946              1413.1248              1420.9172
 Red. masses --      1.2343                 1.3397                 1.4512
 Frc consts  --      1.4059                 1.5762                 1.7263
 IR Inten    --     11.4750                 2.1957                 5.9630

                     82                     83                     84
                      A                      A                      A
 Frequencies --   1430.4996              1436.8009              1438.8692
 Red. masses --      1.2346                 1.5826                 1.2032
 Frc consts  --      1.4885                 1.9250                 1.4676
 IR Inten    --      7.8297                 2.2366                 7.0584

                     85                     86                     87
                      A                      A                      A
 Frequencies --   1446.9880              1477.0175              1477.3233
 Red. masses --      1.1571                 1.6019                 1.1221
 Frc consts  --      1.4274                 2.0590                 1.4428
 IR Inten    --     13.2235                 1.1888                 6.2901

                     88                     89                     90
                      A                      A                      A
 Frequencies --   1489.7714              1500.6447              1502.2300
 Red. masses --      1.0748                 1.0810                 2.6077
 Frc consts  --      1.4054                 1.4342                 3.4672
 IR Inten    --      8.4334                 8.4662                 1.2744

                     91                     92                     93
                      A                      A                      A
 Frequencies --   1513.0217              1541.6278              1564.5972
 Red. masses --      1.0631                 1.1063                 6.9371
 Frc consts  --      1.4339                 1.5492                10.0054
 IR Inten    --      6.1861                 0.3963                94.8722

                     94                     95                     96
                      A                      A                      A
 Frequencies --   1608.4571              1614.6196              1689.8277
 Red. masses --      7.3477                 7.3631                 5.6419
 Frc consts  --     11.2000                11.3097                 9.4921
 IR Inten    --      8.3932                55.5951                 8.8957

                     97                     98                     99
                      A                      A                      A
 Frequencies --   1720.3819              2239.7819              2941.9677
 Red. masses --      5.8342                12.3444                 1.0705
 Frc consts  --     10.1737                36.4863                 5.4591
 IR Inten    --     12.9444               770.4546                75.9019

                    100                    101                    102
                      A                      A                      A
 Frequencies --   2943.8668              2998.3774              3075.6856
 Red. masses --      1.0592                 1.0854                 1.0740
 Frc consts  --      5.4084                 5.7490                 5.9860
 IR Inten    --     66.5027                21.5482                33.0145

                    103                    104                    105
                      A                      A                      A
 Frequencies --   3105.6367              3126.1814              3145.2855
 Red. masses --      1.0817                 1.1019                 1.0858
 Frc consts  --      6.1470                 6.3448                 6.3288
 IR Inten    --      2.2675                14.9067                 3.4717

                    106                    107                    108
                      A                      A                      A
 Frequencies --   3156.1904              3166.8903              3171.2983
 Red. masses --      1.0858                 1.0837                 1.0856
 Frc consts  --      6.3729                 6.4039                 6.4330
 IR Inten    --      2.9660                 4.1198                 2.5501

                    109                    110                    111
                      A                      A                      A
 Frequencies --   3174.9755              3186.3170              3199.5436
 Red. masses --      1.0619                 1.0941                 1.0977
 Frc consts  --      6.3068                 6.5445                 6.6206
 IR Inten    --      2.7299                31.8351                25.3085

                    112                    113                    114
                      A                      A                      A
 Frequencies --   3270.5879              3317.4022              3479.7064
 Red. masses --      1.1130                 1.0735                 1.0745
 Frc consts  --      7.0143                 6.9604                 7.6656
 IR Inten    --      2.6714                15.9284                 1.7231

                    115                    116                    117
                      A                      A                      A
 Frequencies --   3508.6111              3543.5485              3771.7262
 Red. masses --      1.0758                 1.0752                 1.0683
 Frc consts  --      7.8031                 7.9545                 8.9539
 IR Inten    --     26.2108                 1.2936                36.0617

 - Thermochemistry -
 -------------------
 Temperature   298.150 Kelvin.  Pressure   1.00000 Atm.
 Atom     1 has atomic number  6 and mass  12.00000

 Molecular mass:   301.16511 amu.
 Principal axes and moments of inertia in atomic units:
                           1         2         3
     Eigenvalues --  5432.94434********************
           X            1.00000   0.00009   0.00017
           Y           -0.00008   0.99996  -0.00890
           Z           -0.00017   0.00890   0.99996
 This molecule is an asymmetric top.
 Rotational symmetry number  1.
 Warning -- assumption of classical behavior for rotation
           may cause significant error
 Rotational temperatures (Kelvin)      0.01594     0.00830     0.00652
 Rotational constants (GHZ):           0.33218     0.17302     0.13582
 Zero-point vibrational energy     874740.2 (Joules/Mol)
                                  209.06791 (Kcal/Mol)
 Warning -- explicit consideration of  34 degrees of freedom as
           vibrations may cause significant error
 Vibrational temperatures:     27.38    35.77    45.51    85.65    93.10
          (Kelvin)            104.20   125.58   158.11   167.64   205.35
                              232.61   256.20   275.82   315.49   323.39
                              362.19   406.76   413.19   459.32   493.85
                              517.68   530.92   564.93   577.40   588.52
                              636.31   645.67   676.51   711.78   741.06
                              772.27   806.69   831.66   867.15   904.89
                              961.93  1000.10  1042.24  1068.88  1077.68
                             1095.52  1110.78  1132.47  1165.18  1208.93
                             1256.55  1261.19  1280.49  1301.56  1310.68
                             1326.42  1368.67  1377.44  1386.26  1399.72
                             1411.95  1427.96  1449.47  1476.81  1493.07
                             1509.62  1570.00  1585.69  1602.02  1649.01
                             1655.52  1679.61  1705.07  1722.79  1760.31
                             1768.91  1777.47  1781.55  1828.78  1874.83
                             1964.55  1982.13  1987.50  2000.47  2033.17
                             2044.38  2058.17  2067.24  2070.21  2081.89
                             2125.10  2125.54  2143.45  2159.09  2161.37
                             2176.90  2218.06  2251.11  2314.21  2323.08
                             2431.29  2475.25  3222.55  4232.84  4235.57
                             4314.00  4425.23  4468.32  4497.88  4525.36
                             4541.05  4556.45  4562.79  4568.08  4584.40
                             4603.43  4705.65  4773.00  5006.52  5048.11
                             5098.38  5426.67

 Zero-point correction=                           0.333171 (Hartree/Particle)
 Thermal correction to Energy=                    0.354602
 Thermal correction to Enthalpy=                  0.355546
 Thermal correction to Gibbs Free Energy=         0.280928
 Sum of electronic and zero-point Energies=          -1002.803251
 Sum of electronic and thermal Energies=             -1002.781820
 Sum of electronic and thermal Enthalpies=           -1002.780876
 Sum of electronic and thermal Free Energies=        -1002.855494

                     E (Thermal)             CV                S
                      KCal/Mol        Cal/Mol-Kelvin    Cal/Mol-Kelvin
 Total                  222.516             81.579            157.047
 Electronic               0.000              0.000              0.000
 Translational            0.889              2.981             43.004
 Rotational               0.889              2.981             34.975
 Vibrational            220.739             75.618             79.068
 Vibration     1          0.593              1.986              6.733
 Vibration     2          0.593              1.985              6.202
 Vibration     3          0.594              1.983              5.724
 Vibration     4          0.597              1.974              4.473
 Vibration     5          0.597              1.971              4.308
 Vibration     6          0.599              1.967              4.086
 Vibration     7          0.601              1.958              3.720
 Vibration     8          0.606              1.941              3.271
 Vibration     9          0.608              1.936              3.157
 Vibration    10          0.616              1.910              2.767
 Vibration    11          0.622              1.889              2.530
 Vibration    12          0.629              1.869              2.349
 Vibration    13          0.634              1.851              2.211
 Vibration    14          0.647              1.812              1.965
 Vibration    15          0.649              1.803              1.920
 Vibration    16          0.664              1.760              1.718
 Vibration    17          0.682              1.706              1.517
 Vibration    18          0.684              1.698              1.491
 Vibration    19          0.705              1.637              1.314
 Vibration    20          0.722              1.589              1.197
 Vibration    21          0.734              1.555              1.123
 Vibration    22          0.741              1.536              1.084
 Vibration    23          0.760              1.486              0.990
 Vibration    24          0.767              1.467              0.958
 Vibration    25          0.773              1.451              0.930
 Vibration    26          0.802              1.378              0.820
 Vibration    27          0.808              1.364              0.800
 Vibration    28          0.827              1.316              0.737
 Vibration    29          0.850              1.262              0.671
 Vibration    30          0.870              1.217              0.622
 Vibration    31          0.892              1.169              0.572
 Vibration    32          0.916              1.116              0.522
 Vibration    33          0.935              1.079              0.489
 Vibration    34          0.961              1.026              0.445

 Optimization completed.
    -- Stationary point found.
 Normal termination of Gaussian 16 at Sat May 20 03:34:26 2023.
