 Gaussian 16, Revision A.03,
 Gaussian 16:  ES64L-G16RevA.03 25-Dec-2016

 -----------------------------
 # opt freq b3lyp/6-31g(2df,p)
 -----------------------------

 -------------------
 Title Card Required
 -------------------
 Symbolic Z-matrix:
 Charge =  0 Multiplicity = 1

 SCF Done:  E(RB3LYP) =  -1373.70124923     A.U. after   30 cycles
 SCF Done:  E(RB3LYP) =  -1373.77474275     A.U. after   27 cycles
 SCF Done:  E(RB3LYP) =  -1373.83584062     A.U. after   18 cycles
 SCF Done:  E(RB3LYP) =  -1373.94223196     A.U. after   15 cycles
 SCF Done:  E(RB3LYP) =  -1374.02513341     A.U. after   16 cycles
 SCF Done:  E(RB3LYP) =  -1374.06359319     A.U. after   14 cycles
 SCF Done:  E(RB3LYP) =  -1374.07936849     A.U. after   15 cycles
 SCF Done:  E(RB3LYP) =  -1374.08047907     A.U. after   14 cycles
 SCF Done:  E(RB3LYP) =  -1374.08953460     A.U. after   14 cycles
 SCF Done:  E(RB3LYP) =  -1374.09410357     A.U. after   14 cycles
 SCF Done:  E(RB3LYP) =  -1374.09568213     A.U. after   15 cycles
 SCF Done:  E(RB3LYP) =  -1374.09617287     A.U. after   13 cycles
 SCF Done:  E(RB3LYP) =  -1374.09635371     A.U. after   13 cycles
 SCF Done:  E(RB3LYP) =  -1374.09647813     A.U. after   12 cycles
 SCF Done:  E(RB3LYP) =  -1374.09658355     A.U. after   12 cycles
 SCF Done:  E(RB3LYP) =  -1374.09664534     A.U. after   11 cycles
 SCF Done:  E(RB3LYP) =  -1374.09665830     A.U. after   11 cycles
 SCF Done:  E(RB3LYP) =  -1374.09665988     A.U. after    8 cycles
 SCF Done:  E(RB3LYP) =  -1374.09666007     A.U. after    7 cycles
 Optimization completed.
    -- Stationary point found.
 Normal termination of Gaussian 16 at Thu May 18 14:20:53 2023.

 ----------------------------------------------------------------------
 #N Geom=AllCheck Guess=TCheck SCRF=Check GenChk RB3LYP/6-31G(2df,p) Fr
 eq
 ----------------------------------------------------------------------

 Structure from the checkpoint file:  "CdCqOrC1dCCdC2CdCCdCCdCSCdS21.chk"
 -------------------
 Title Card Required
 -------------------
 Charge =  0 Multiplicity = 1

                         Standard orientation:
 ---------------------------------------------------------------------
 Center     Atomic      Atomic             Coordinates (Angstroms)
 Number     Number       Type             X           Y           Z
 ---------------------------------------------------------------------
      1          6           0       -6.773093   -0.936388    0.091784
      2          6           0       -5.810607   -0.007560    0.005131
      3          8           0       -6.059586    1.334059   -0.078016
      4          6           0       -4.379495   -0.283289   -0.008918
      5          6           0       -3.718973   -1.495572   -0.041589
      6          6           0       -2.318591   -1.373897   -0.037200
      7          6           0       -1.877195   -0.060755   -0.004498
      8          6           0       -0.543947    0.477575    0.006473
      9          6           0        0.609640   -0.235155   -0.005628
     10          6           0        1.910607    0.361829    0.006161
     11          6           0        3.078347   -0.327844   -0.005545
     12          6           0        4.373799    0.292090    0.006614
     13          6           0        5.540574   -0.380331   -0.004712
     14         16           0        7.091367    0.450224    0.011587
     15          6           0        8.211357   -0.765518   -0.009525
     16         16           0       -3.239706    1.024010    0.021303
     17          1           0       -7.822264   -0.663496    0.084978
     18          1           0       -6.534901   -1.986762    0.174282
     19          1           0       -7.009207    1.483890   -0.022840
     20          1           0       -4.235158   -2.446461   -0.074138
     21          1           0       -1.647658   -2.223068   -0.061665
     22          1           0       -0.467628    1.563200    0.026893
     23          1           0        0.569560   -1.322313   -0.025138
     24          1           0        1.950183    1.450701    0.025944
     25          1           0        3.049481   -1.415878   -0.025348
     26          1           0        4.395169    1.381310    0.026427
     27          1           0        5.618551   -1.463800   -0.024317
     28          1           0        9.169451   -0.208645    0.001514
 ---------------------------------------------------------------------

 SCF Done:  E(RB3LYP) =  -1374.09666007     A.U. after    1 cycles

 The electronic state is 1-A.
 Alpha  occ. eigenvalues --  -88.92030 -88.91163 -19.18071 -10.26148 -10.22658
 Alpha  occ. eigenvalues --  -10.22599 -10.21313 -10.20923 -10.20908 -10.20409
 Alpha  occ. eigenvalues --  -10.20394 -10.20045 -10.20037 -10.20000 -10.19797
 Alpha  occ. eigenvalues --  -10.17782  -7.98088  -7.97313  -5.94356  -5.94140
 Alpha  occ. eigenvalues --   -5.93988  -5.93695  -5.93343  -5.93105  -1.07070
 Alpha  occ. eigenvalues --   -0.89137  -0.84563  -0.82650  -0.79879  -0.77576
 Alpha  occ. eigenvalues --   -0.74613  -0.73995  -0.70329  -0.64905  -0.63296
 Alpha  occ. eigenvalues --   -0.59690  -0.57250  -0.55657  -0.54847  -0.52904
 Alpha  occ. eigenvalues --   -0.51801  -0.49954  -0.48152  -0.46702  -0.44308
 Alpha  occ. eigenvalues --   -0.42956  -0.42174  -0.41299  -0.39942  -0.38634
 Alpha  occ. eigenvalues --   -0.38572  -0.38313  -0.38188  -0.37161  -0.36523
 Alpha  occ. eigenvalues --   -0.36444  -0.35519  -0.34116  -0.33889  -0.30262
 Alpha  occ. eigenvalues --   -0.26723  -0.25906  -0.23369  -0.21572  -0.19271
 Alpha virt. eigenvalues --   -0.08752  -0.05490  -0.02156   0.01667   0.02366
 Alpha virt. eigenvalues --    0.05390   0.06014   0.06456   0.08309   0.08666
 Alpha virt. eigenvalues --    0.09934   0.10526   0.10912   0.11009   0.11629

 Mulliken charges:
               1
     1  C   -0.460781
     2  C    0.326088
     3  O   -0.419784
     4  C    0.152659
     5  C   -0.201801
     6  C   -0.207869
     7  C    0.204158
     8  C   -0.175631
     9  C   -0.097650
    10  C   -0.048836
    11  C   -0.103879
    12  C   -0.050667
    13  C   -0.129784
    14  S    0.061901
    15  C   -0.317295
    16  S   -0.025580
    17  H    0.100550
    18  H    0.118204
    19  H    0.301723
    20  H    0.113871
    21  H    0.113342
    22  H    0.102523
    23  H    0.091078
    24  H    0.090093
    25  H    0.092850
    26  H    0.104154
    27  H    0.135976
    28  H    0.130387
 Sum of Mulliken charges =  -0.00000

 Dipole moment (field-independent basis, Debye):
    X=             -4.6666    Y=              0.6063    Z=              0.0945  Tot=              4.7067
 Quadrupole moment (field-independent basis, Debye-Ang):
   XX=           -110.3445   YY=           -102.7543   ZZ=           -112.7125
   XY=             11.7281   XZ=             -0.3388   YZ=              0.2336

  Exact polarizability: 703.660  -6.928 162.634  -2.297   0.371  79.019
 Approx polarizability:1040.069 -44.074 309.214  -4.454   0.899 136.100

                      1                      2                      3
                      A                      A                      A
 Frequencies --     14.4214                21.4855                31.4140
 Red. masses --      4.3159                 6.1521                 6.2181
 Frc consts  --      0.0005                 0.0017                 0.0036
 IR Inten    --      1.2554                 0.3498                 1.2633

                      4                      5                      6
                      A                      A                      A
 Frequencies --     51.8376                59.7916                92.4723
 Red. masses --      3.9518                 7.3721                 5.7379
 Frc consts  --      0.0063                 0.0155                 0.0289
 IR Inten    --      1.4589                 2.7862                 3.2110

                      7                      8                      9
                      A                      A                      A
 Frequencies --    114.9264               153.9304               167.2314
 Red. masses --      3.5927                 7.3959                 3.5916
 Frc consts  --      0.0280                 0.1032                 0.0592
 IR Inten    --      0.0345                 2.0809                 1.4076

                     10                     11                     12
                      A                      A                      A
 Frequencies --    183.8322               188.5770               231.2085
 Red. masses --      5.9183                 3.0286                 5.7128
 Frc consts  --      0.1178                 0.0635                 0.1799
 IR Inten    --      1.8417                 0.5218                 3.2131

                     13                     14                     15
                      A                      A                      A
 Frequencies --    259.2488               327.9408               329.1910
 Red. masses --      2.9444                 2.3675                 5.1862
 Frc consts  --      0.1166                 0.1500                 0.3311
 IR Inten    --      2.8856                 2.5654                52.7578

                     16                     17                     18
                      A                      A                      A
 Frequencies --    349.0151               366.2436               388.0942
 Red. masses --      4.4039                 1.6637                 1.7994
 Frc consts  --      0.3161                 0.1315                 0.1597
 IR Inten    --      9.2851                62.2068                36.8012

                     19                     20                     21
                      A                      A                      A
 Frequencies --    411.9788               441.7168               483.1670
 Red. masses --      5.1755                 5.7507                 3.4075
 Frc consts  --      0.5176                 0.6611                 0.4687
 IR Inten    --      1.8006                12.7465                 3.9637

                     22                     23                     24
                      A                      A                      A
 Frequencies --    493.7511               558.7212               580.6596
 Red. masses --      4.1289                 3.8068                 3.7306
 Frc consts  --      0.5931                 0.7002                 0.7411
 IR Inten    --      5.8544                10.9281                 4.1826

                     25                     26                     27
                      A                      A                      A
 Frequencies --    588.7229               662.0849               677.9486
 Red. masses --      3.0067                 2.7261                 4.9820
 Frc consts  --      0.6140                 0.7041                 1.3491
 IR Inten    --      0.2508                 1.6605                 9.7480

                     28                     29                     30
                      A                      A                      A
 Frequencies --    687.3200               751.4722               757.3539
 Red. masses --      1.3949                 6.4400                 1.1681
 Frc consts  --      0.3882                 2.1427                 0.3948
 IR Inten    --      3.4397                 3.2750                18.8218

                     31                     32                     33
                      A                      A                      A
 Frequencies --    791.3797               799.3073               819.5719
 Red. masses --      1.4977                 5.0882                 1.3419
 Frc consts  --      0.5526                 1.9153                 0.5311
 IR Inten    --     54.4291                50.1572                23.8151

                     34                     35                     36
                      A                      A                      A
 Frequencies --    831.9095               839.2189               874.2111
 Red. masses --      3.7700                 1.4653                 1.8288
 Frc consts  --      1.5373                 0.6080                 0.8235
 IR Inten    --     60.5720                 1.3179                 2.0987

                     37                     38                     39
                      A                      A                      A
 Frequencies --    898.5411               913.0998               919.0499
 Red. masses --      1.4651                13.0458                 2.1835
 Frc consts  --      0.6969                 6.4085                 1.0866
 IR Inten    --      0.1492                15.4903                 1.0831

                     40                     41                     42
                      A                      A                      A
 Frequencies --    957.4525               971.6792               999.9845
 Red. masses --      1.1466                 2.1060                 1.1039
 Frc consts  --      0.6193                 1.1715                 0.6504
 IR Inten    --      2.5393                10.0090                 0.0209

                     43                     44                     45
                      A                      A                      A
 Frequencies --   1044.1698              1047.2509              1066.4163
 Red. masses --      1.9064                 1.0889                 1.2013
 Frc consts  --      1.2246                 0.7036                 0.8049
 IR Inten    --     14.9303                65.0766                22.4568

                     46                     47                     48
                      A                      A                      A
 Frequencies --   1104.5196              1135.1569              1163.3299
 Red. masses --      3.2073                 1.9910                 1.8348
 Frc consts  --      2.3053                 1.5116                 1.4630
 IR Inten    --     20.8531                21.8439                52.2854

                     49                     50                     51
                      A                      A                      A
 Frequencies --   1182.6849              1190.9165              1223.8790
 Red. masses --      1.6866                 1.8403                 2.0864
 Frc consts  --      1.3899                 1.5378                 1.8413
 IR Inten    --     39.1259               244.0659                24.6989

                     52                     53                     54
                      A                      A                      A
 Frequencies --   1261.4479              1268.1271              1302.8051
 Red. masses --      1.4475                 1.3524                 1.5664
 Frc consts  --      1.3570                 1.2814                 1.5664
 IR Inten    --     57.0726                 8.3786                 5.5135

                     55                     56                     57
                      A                      A                      A
 Frequencies --   1325.6092              1332.0484              1352.2141
 Red. masses --      1.4193                 1.3975                 2.3449
 Frc consts  --      1.4695                 1.4610                 2.5262
 IR Inten    --      0.1900                 0.2865                75.9734

                     58                     59                     60
                      A                      A                      A
 Frequencies --   1377.9977              1409.1882              1451.8486
 Red. masses --      1.6253                 2.9001                 1.4057
 Frc consts  --      1.8183                 3.3931                 1.7458
 IR Inten    --      6.1477                42.7620                 4.3577

                     61                     62                     63
                      A                      A                      A
 Frequencies --   1482.6720              1568.3048              1608.9818
 Red. masses --      4.2073                 5.1265                 5.3744
 Frc consts  --      5.4493                 7.4290                 8.1975
 IR Inten    --     18.6030                 8.7229                97.5042

                     64                     65                     66
                      A                      A                      A
 Frequencies --   1649.0740              1663.8693              1680.9524
 Red. masses --      4.5960                 5.2219                 5.5784
 Frc consts  --      7.3640                 8.5177                 9.2869
 IR Inten    --    136.3497                 9.8568               116.4081

                     67                     68                     69
                      A                      A                      A
 Frequencies --   2984.3778              3131.4628              3134.6420
 Red. masses --      1.0823                 1.0881                 1.0877
 Frc consts  --      5.6793                 6.2863                 6.2971
 IR Inten    --     57.6876                 3.0232                 5.3066

                     70                     71                     72
                      A                      A                      A
 Frequencies --   3141.5902              3147.4601              3153.8012
 Red. masses --      1.0890                 1.0878                 1.0859
 Frc consts  --      6.3325                 6.3491                 6.3636
 IR Inten    --      4.4540                 3.9248                45.6151

                     73                     74                     75
                      A                      A                      A
 Frequencies --   3168.7233              3175.3659              3206.4184
 Red. masses --      1.0634                 1.0916                 1.0877
 Frc consts  --      6.2907                 6.4849                 6.5886
 IR Inten    --      1.6548                14.8631                 9.5917

                     76                     77                     78
                      A                      A                      A
 Frequencies --   3221.7405              3265.1586              3823.8120
 Red. masses --      1.0973                 1.1122                 1.0657
 Frc consts  --      6.7104                 6.9860                 9.1804
 IR Inten    --      5.0673                 4.2235                64.5066

 - Thermochemistry -
 -------------------
 Temperature   298.150 Kelvin.  Pressure   1.00000 Atm.
 Atom     1 has atomic number  6 and mass  12.00000

 Molecular mass:   248.03296 amu.
 Principal axes and moments of inertia in atomic units:
                           1         2         3
     Eigenvalues --   627.91486********************
           X            1.00000   0.00257  -0.00022
           Y           -0.00257   1.00000   0.00055
           Z            0.00022  -0.00055   1.00000
 This molecule is an asymmetric top.
 Rotational symmetry number  1.
 Warning -- assumption of classical behavior for rotation
           may cause significant error
 Rotational temperatures (Kelvin)      0.13794     0.00412     0.00400
 Rotational constants (GHZ):           2.87418     0.08585     0.08337
 Zero-point vibrational energy     547226.8 (Joules/Mol)
                                  130.79035 (Kcal/Mol)
 Warning -- explicit consideration of  25 degrees of freedom as
           vibrations may cause significant error
 Vibrational temperatures:     20.75    30.91    45.20    74.58    86.03
          (Kelvin)            133.05   165.35   221.47   240.61   264.49
                              271.32   332.66   373.00   471.83   473.63
                              502.15   526.94   558.38   592.75   635.53
                              695.17   710.40   803.88   835.44   847.04
                              952.59   975.42   988.90  1081.20  1089.66
                             1138.62  1150.02  1179.18  1196.93  1207.45
                             1257.79  1292.80  1313.75  1322.31  1377.56
                             1398.03  1438.75  1502.33  1506.76  1534.34
                             1589.16  1633.24  1673.77  1701.62  1713.46
                             1760.89  1814.94  1824.55  1874.45  1907.26
                             1916.52  1945.53  1982.63  2027.51  2088.89
                             2133.23  2256.44  2314.97  2372.65  2393.94
                             2418.52  4293.85  4505.48  4510.05  4520.05
                             4528.49  4537.62  4559.09  4568.64  4613.32
                             4635.37  4697.83  5501.61

 Zero-point correction=                           0.208428 (Hartree/Particle)
 Thermal correction to Energy=                    0.225374
 Thermal correction to Enthalpy=                  0.226318
 Thermal correction to Gibbs Free Energy=         0.159974
 Sum of electronic and zero-point Energies=          -1373.888232
 Sum of electronic and thermal Energies=             -1373.871286
 Sum of electronic and thermal Enthalpies=           -1373.870342
 Sum of electronic and thermal Free Energies=        -1373.936686

                     E (Thermal)             CV                S
                      KCal/Mol        Cal/Mol-Kelvin    Cal/Mol-Kelvin
 Total                  141.424             61.529            139.634
 Electronic               0.000              0.000              0.000
 Translational            0.889              2.981             42.426
 Rotational               0.889              2.981             34.013
 Vibrational            139.647             55.568             63.195
 Vibration     1          0.593              1.986              7.284
 Vibration     2          0.593              1.985              6.492
 Vibration     3          0.594              1.983              5.738
 Vibration     4          0.596              1.977              4.746
 Vibration     5          0.597              1.973              4.464
 Vibration     6          0.602              1.955              3.607
 Vibration     7          0.608              1.937              3.184
 Vibration     8          0.619              1.898              2.623
 Vibration     9          0.624              1.883              2.466
 Vibration    10          0.631              1.862              2.289
 Vibration    11          0.633              1.856              2.242
 Vibration    12          0.653              1.793              1.870
 Vibration    13          0.668              1.747              1.667
 Vibration    14          0.711              1.620              1.270
 Vibration    15          0.712              1.617              1.264
 Vibration    16          0.726              1.577              1.171
 Vibration    17          0.739              1.542              1.095
 Vibration    18          0.756              1.496              1.007
 Vibration    19          0.776              1.444              0.920
 Vibration    20          0.801              1.379              0.821
 Vibration    21          0.839              1.287              0.702
 Vibration    22          0.849              1.264              0.674
 Vibration    23          0.914              1.121              0.526
 Vibration    24          0.937              1.073              0.484
 Vibration    25          0.946              1.056              0.469

 Optimization completed.
    -- Stationary point found.
 Normal termination of Gaussian 16 at Thu May 18 15:57:32 2023.
