 Gaussian 16, Revision A.03,
 Gaussian 16:  ES64L-G16RevA.03 25-Dec-2016

 -----------------------------
 # opt freq b3lyp/6-31g(2df,p)
 -----------------------------

 -------------------
 Title Card Required
 -------------------
 Symbolic Z-matrix:
 Charge =  0 Multiplicity = 1

 SCF Done:  E(RB3LYP) =  -956.999275264     A.U. after   21 cycles
 SCF Done:  E(RB3LYP) =  -957.059105024     A.U. after   15 cycles
 SCF Done:  E(RB3LYP) =  -957.127513938     A.U. after   16 cycles
 SCF Done:  E(RB3LYP) =  -957.166731851     A.U. after   15 cycles
 SCF Done:  E(RB3LYP) =  -957.199816823     A.U. after   15 cycles
 SCF Done:  E(RB3LYP) =  -957.219135985     A.U. after   14 cycles
 SCF Done:  E(RB3LYP) =  -957.229037903     A.U. after   15 cycles
 SCF Done:  E(RB3LYP) =  -957.234928228     A.U. after   14 cycles
 SCF Done:  E(RB3LYP) =  -957.236339087     A.U. after   14 cycles
 SCF Done:  E(RB3LYP) =  -957.237904672     A.U. after   14 cycles
 SCF Done:  E(RB3LYP) =  -957.246653310     A.U. after   12 cycles
 SCF Done:  E(RB3LYP) =  -957.246655531     A.U. after   10 cycles
 SCF Done:  E(RB3LYP) =  -957.246661631     A.U. after    9 cycles
 SCF Done:  E(RB3LYP) =  -957.246662980     A.U. after    8 cycles
 SCF Done:  E(RB3LYP) =  -957.246663501     A.U. after    7 cycles
 SCF Done:  E(RB3LYP) =  -957.246664398     A.U. after   10 cycles
 SCF Done:  E(RB3LYP) =  -957.246667625     A.U. after    9 cycles
 SCF Done:  E(RB3LYP) =  -957.246667844     A.U. after    7 cycles
 SCF Done:  E(RB3LYP) =  -957.246667938     A.U. after    7 cycles
 Optimization completed.
    -- Stationary point found.
 Normal termination of Gaussian 16 at Thu May 18 00:57:59 2023.

 ----------------------------------------------------------------------
 #N Geom=AllCheck Guess=TCheck SCRF=Check GenChk RB3LYP/6-31G(2df,p) Fr
 eq
 ----------------------------------------------------------------------

 Structure from the checkpoint file:  "CdCqCCCrNC1dCqCqCrdSrCdCdCdC1.chk"
 -------------------
 Title Card Required
 -------------------
 Charge =  0 Multiplicity = 1

                         Standard orientation:
 ---------------------------------------------------------------------
 Center     Atomic      Atomic             Coordinates (Angstroms)
 Number     Number       Type             X           Y           Z
 ---------------------------------------------------------------------
      1          6           0        2.399075   -0.427825    2.325817
      2          6           0        1.907723   -0.062321    1.140692
      3          6           0        2.774573    0.366177   -0.023604
      4          6           0        2.923338   -0.740848   -1.085470
      5          6           0        3.756170   -0.292391   -2.288568
      6          7           0        0.518995   -0.222473    0.878988
      7          6           0       -0.335152    0.740701    0.451781
      8          6           0       -1.659842    0.400780   -0.074629
      9          6           0       -2.166568   -0.953326   -0.212568
     10          6           0       -3.488117   -1.145412   -0.937832
     11         16           0       -1.453672   -2.350193    0.361385
     12          6           0       -2.539787    1.465700   -0.493609
     13          6           0       -1.978539    2.700886   -0.384524
     14          6           0       -0.857838    2.963960    0.103409
     15          6           0        0.090065    2.111490    0.573402
     16          1           0        3.466281   -0.412231    2.513499
     17          1           0        1.753524   -0.769106    3.126659
     18          1           0        3.761492    0.649737    0.357307
     19          1           0        2.354258    1.256779   -0.504381
     20          1           0        1.927174   -1.053966   -1.418574
     21          1           0        3.382132   -1.620802   -0.618897
     22          1           0        3.297782    0.567012   -2.790398
     23          1           0        3.851018   -1.096179   -3.025020
     24          1           0        4.767144    0.002601   -1.985764
     25          1           0        0.109057   -1.157040    0.989500
     26          1           0       -3.476031   -0.677915   -1.927983
     27          1           0       -4.315588   -0.699631   -0.373314
     28          1           0       -3.691347   -2.208921   -1.050594
     29          1           0       -3.537417    1.260019   -0.849877
     30          1           0        1.025695    2.354623    1.056991
 ---------------------------------------------------------------------

 SCF Done:  E(RB3LYP) =  -957.246667938     A.U. after    1 cycles

 The electronic state is 1-A.
 Alpha  occ. eigenvalues --  -88.84578 -14.35521 -10.25956 -10.25841 -10.22995
 Alpha  occ. eigenvalues --  -10.22840 -10.21921 -10.21531 -10.20704 -10.19548
 Alpha  occ. eigenvalues --  -10.19358 -10.19076 -10.18460 -10.18034 -10.17613
 Alpha  occ. eigenvalues --   -7.91199  -5.87515  -5.87385  -5.86780  -0.95985
 Alpha  occ. eigenvalues --   -0.87355  -0.82592  -0.80621  -0.76622  -0.75190
 Alpha  occ. eigenvalues --   -0.72068  -0.70170  -0.68495  -0.63314  -0.61903
 Alpha  occ. eigenvalues --   -0.59814  -0.56550  -0.55789  -0.49600  -0.48807
 Alpha  occ. eigenvalues --   -0.47203  -0.46893  -0.45858  -0.44759  -0.44255
 Alpha  occ. eigenvalues --   -0.43533  -0.41870  -0.41606  -0.40001  -0.39725
 Alpha  occ. eigenvalues --   -0.38566  -0.38004  -0.35796  -0.34776  -0.34628
 Alpha  occ. eigenvalues --   -0.33449  -0.32958  -0.30878  -0.26944  -0.26226
 Alpha  occ. eigenvalues --   -0.25502  -0.22083  -0.20974
 Alpha virt. eigenvalues --   -0.08662  -0.07916  -0.01706   0.01192   0.03948
 Alpha virt. eigenvalues --    0.08763   0.09402   0.09947   0.11624   0.12132
 Alpha virt. eigenvalues --    0.13666   0.14402   0.14935   0.15750   0.16162

 Mulliken charges:
               1
     1  C   -0.392492
     2  C    0.311680
     3  C   -0.253414
     4  C   -0.161330
     5  C   -0.381371
     6  N   -0.414339
     7  C    0.315647
     8  C    0.133886
     9  C    0.194952
    10  C   -0.463767
    11  S   -0.386090
    12  C   -0.216679
    13  C   -0.036304
    14  C    0.025799
    15  C   -0.265047
    16  H    0.112489
    17  H    0.115238
    18  H    0.104743
    19  H    0.109357
    20  H    0.113773
    21  H    0.102744
    22  H    0.116652
    23  H    0.115911
    24  H    0.114134
    25  H    0.289408
    26  H    0.141396
    27  H    0.146402
    28  H    0.153478
    29  H    0.121660
    30  H    0.131485
 Sum of Mulliken charges =  -0.00000

 Dipole moment (field-independent basis, Debye):
    X=              0.6695    Y=              1.0165    Z=             -0.5137  Tot=              1.3211
 Quadrupole moment (field-independent basis, Debye-Ang):
   XX=            -86.0494   YY=           -106.1060   ZZ=            -95.9607
   XY=             -0.9330   XZ=              4.1645   YZ=              0.8736

  Exact polarizability: 203.839   5.404 194.093  33.822 -10.238 131.017
 Approx polarizability: 332.633   8.406 386.331  80.551 -29.311 214.378

                      1                      2                      3
                      A                      A                      A
 Frequencies --     28.8902                33.4971                54.5985
 Red. masses --      4.1290                 4.1024                 3.6171
 Frc consts  --      0.0020                 0.0027                 0.0064
 IR Inten    --      0.6014                 0.0117                 1.0360

                      4                      5                      6
                      A                      A                      A
 Frequencies --     72.7340                97.4875               108.7032
 Red. masses --      1.7376                 4.2766                 3.4833
 Frc consts  --      0.0054                 0.0239                 0.0243
 IR Inten    --      0.1286                 1.4933                 0.1323

                      7                      8                      9
                      A                      A                      A
 Frequencies --    145.9021               193.6340               227.9849
 Red. masses --      4.4098                 3.3886                 1.2164
 Frc consts  --      0.0553                 0.0749                 0.0373
 IR Inten    --      0.5697                 0.1553                 1.0536

                     10                     11                     12
                      A                      A                      A
 Frequencies --    232.7255               247.3666               255.5379
 Red. masses --      2.2081                 1.6510                 2.7592
 Frc consts  --      0.0705                 0.0595                 0.1062
 IR Inten    --      2.0205                 0.9469                 1.4784

                     13                     14                     15
                      A                      A                      A
 Frequencies --    292.9627               323.4122               336.4522
 Red. masses --      8.7389                 5.1372                 3.5374
 Frc consts  --      0.4419                 0.3166                 0.2359
 IR Inten    --      9.9313                49.0603                12.4974

                     16                     17                     18
                      A                      A                      A
 Frequencies --    375.1800               387.5184               422.6519
 Red. masses --      3.3988                 3.7951                 2.9038
 Frc consts  --      0.2819                 0.3358                 0.3056
 IR Inten    --     16.8860                 9.7430                 4.3850

                     19                     20                     21
                      A                      A                      A
 Frequencies --    452.8558               460.1070               493.3483
 Red. masses --      6.0961                 3.9339                 4.4636
 Frc consts  --      0.7366                 0.4907                 0.6401
 IR Inten    --      8.3318                12.1022                 0.2954

                     22                     23                     24
                      A                      A                      A
 Frequencies --    552.9182               559.7022               592.1509
 Red. masses --      3.4204                 4.4052                 1.3184
 Frc consts  --      0.6161                 0.8131                 0.2724
 IR Inten    --      2.1942                 5.9641                40.3145

                     25                     26                     27
                      A                      A                      A
 Frequencies --    604.2047               641.2422               704.6411
 Red. masses --      4.5754                 3.6168                 1.5801
 Frc consts  --      0.9841                 0.8762                 0.4622
 IR Inten    --     15.1515                16.5921                 4.2233

                     28                     29                     30
                      A                      A                      A
 Frequencies --    749.2742               768.0159               805.3879
 Red. masses --      1.1296                 3.7398                 2.6075
 Frc consts  --      0.3737                 1.2997                 0.9965
 IR Inten    --      2.1592                 2.8603                16.2285

                     31                     32                     33
                      A                      A                      A
 Frequencies --    842.1418               864.1397               871.0290
 Red. masses --      1.5014                 2.3458                 2.2873
 Frc consts  --      0.6274                 1.0321                 1.0224
 IR Inten    --     22.3955                 5.5858                19.7967

                     34                     35                     36
                      A                      A                      A
 Frequencies --    887.7212               893.3659               919.7447
 Red. masses --      1.3224                 1.2972                 2.0768
 Frc consts  --      0.6140                 0.6100                 1.0351
 IR Inten    --      0.6336                 9.7219                12.6029

                     37                     38                     39
                      A                      A                      A
 Frequencies --    923.2883               994.0328              1024.0858
 Red. masses --      1.5415                 1.8893                 1.5621
 Frc consts  --      0.7742                 1.0999                 0.9652
 IR Inten    --     19.4935                 7.4810                 0.1363

                     40                     41                     42
                      A                      A                      A
 Frequencies --   1041.8912              1045.7470              1107.4316
 Red. masses --      2.2120                 2.7085                 1.7463
 Frc consts  --      1.4147                 1.7451                 1.2618
 IR Inten    --     76.2764                 0.5859                 4.9202

                     43                     44                     45
                      A                      A                      A
 Frequencies --   1111.2774              1128.8575              1137.7806
 Red. masses --      1.8149                 2.3668                 5.4060
 Frc consts  --      1.3205                 1.7770                 4.1233
 IR Inten    --      3.7743                79.7477                40.3472

                     46                     47                     48
                      A                      A                      A
 Frequencies --   1192.1606              1247.2721              1255.5762
 Red. masses --      2.9247                 3.6290                 1.4546
 Frc consts  --      2.4491                 3.3263                 1.3511
 IR Inten    --     36.3891                88.8277                 3.0150

                     49                     50                     51
                      A                      A                      A
 Frequencies --   1286.0734              1293.3411              1297.7824
 Red. masses --      1.7490                 2.3969                 1.8897
 Frc consts  --      1.7044                 2.3622                 1.8752
 IR Inten    --     49.5796                86.4952                30.0213

                     52                     53                     54
                      A                      A                      A
 Frequencies --   1317.9172              1335.8231              1378.3024
 Red. masses --      1.3479                 1.5650                 1.4670
 Frc consts  --      1.3793                 1.6453                 1.6420
 IR Inten    --      9.8746                30.4890                 6.0682

                     55                     56                     57
                      A                      A                      A
 Frequencies --   1389.6660              1400.9874              1412.6544
 Red. masses --      1.3631                 1.5770                 1.2325
 Frc consts  --      1.5509                 1.8236                 1.4491
 IR Inten    --      1.3447                27.2394                 0.9843

                     58                     59                     60
                      A                      A                      A
 Frequencies --   1436.5504              1443.3810              1481.4333
 Red. masses --      1.2297                 4.5211                 1.0974
 Frc consts  --      1.4952                 5.5496                 1.4190
 IR Inten    --      4.6802                96.8412                 4.0062

                     61                     62                     63
                      A                      A                      A
 Frequencies --   1488.4240              1489.0801              1493.3504
 Red. masses --      1.0692                 1.0668                 1.0703
 Frc consts  --      1.3956                 1.3938                 1.4063
 IR Inten    --      6.7303                 7.4857                 2.0380

                     64                     65                     66
                      A                      A                      A
 Frequencies --   1497.7335              1499.4224              1509.9083
 Red. masses --      4.8153                 1.0404                 1.0859
 Frc consts  --      6.3642                 1.3781                 1.4586
 IR Inten    --    127.1640                 4.5482                 3.4877

                     67                     68                     69
                      A                      A                      A
 Frequencies --   1560.0659              1705.8830              2004.7983
 Red. masses --      1.7312                 5.4334                11.0606
 Frc consts  --      2.4824                 9.3159                26.1922
 IR Inten    --    167.4952                90.5121                75.2316

                     70                     71                     72
                      A                      A                      A
 Frequencies --   3028.7243              3030.1098              3030.5804
 Red. masses --      1.0372                 1.0581                 1.0406
 Frc consts  --      5.6056                 5.7240                 5.6310
 IR Inten    --     22.7467                 3.3489                 9.3129

                     73                     74                     75
                      A                      A                      A
 Frequencies --   3041.5042              3060.5723              3083.3627
 Red. masses --      1.0588                 1.1001                 1.1030
 Frc consts  --      5.7707                 6.0714                 6.1786
 IR Inten    --     34.2537                 0.2500                 7.6796

                     76                     77                     78
                      A                      A                      A
 Frequencies --   3090.1910              3099.9526              3103.6914
 Red. masses --      1.0983                 1.1033                 1.1007
 Frc consts  --      6.1793                 6.2467                 6.2473
 IR Inten    --      8.0122                67.7031                28.5025

                     79                     80                     81
                      A                      A                      A
 Frequencies --   3157.5981              3160.2360              3221.1775
 Red. masses --      1.0980                 1.0611                 1.0899
 Frc consts  --      6.4498                 6.2440                 6.6629
 IR Inten    --      1.4891                 1.1500                23.6100

                     82                     83                     84
                      A                      A                      A
 Frequencies --   3227.0255              3244.9593              3248.1698
 Red. masses --      1.0805                 1.0899                 1.1161
 Frc consts  --      6.6294                 6.7619                 6.9377
 IR Inten    --    255.8890                 3.3573                12.5680

 - Thermochemistry -
 -------------------
 Temperature   298.150 Kelvin.  Pressure   1.00000 Atm.
 Atom     1 has atomic number  6 and mass  12.00000

 Molecular mass:   217.09252 amu.
 Principal axes and moments of inertia in atomic units:
                           1         2         3
     Eigenvalues --  2718.097644704.712055690.77203
           X            0.99996   0.00725  -0.00571
           Y           -0.00716   0.99984   0.01656
           Z            0.00583  -0.01652   0.99985
 This molecule is an asymmetric top.
 Rotational symmetry number  1.
 Warning -- assumption of classical behavior for rotation
           may cause significant error
 Rotational temperatures (Kelvin)      0.03187     0.01841     0.01522
 Rotational constants (GHZ):           0.66397     0.38360     0.31713
 Zero-point vibrational energy     641551.7 (Joules/Mol)
                                  153.33453 (Kcal/Mol)
 Warning -- explicit consideration of  25 degrees of freedom as
           vibrations may cause significant error
 Vibrational temperatures:     41.57    48.19    78.56   104.65   140.26
          (Kelvin)            156.40   209.92   278.60   328.02   334.84
                              355.91   367.66   421.51   465.32   484.08
                              539.80   557.55   608.10   651.56   661.99
                              709.82   795.53   805.29   851.97   869.32
                              922.60  1013.82  1078.04  1105.00  1158.77
                             1211.65  1243.30  1253.22  1277.23  1285.35
                             1323.31  1328.41  1430.19  1473.43  1499.05
                             1504.60  1593.35  1598.88  1624.17  1637.01
                             1715.25  1794.55  1806.49  1850.37  1860.83
                             1867.22  1896.19  1921.95  1983.07  1999.42
                             2015.71  2032.49  2066.88  2076.70  2131.45
                             2141.51  2142.45  2148.60  2154.90  2157.33
                             2172.42  2244.59  2454.39  2884.46  4357.66
                             4359.65  4360.33  4376.05  4403.48  4436.27
                             4446.10  4460.14  4465.52  4543.08  4546.87
                             4634.56  4642.97  4668.77  4673.39

 Zero-point correction=                           0.244354 (Hartree/Particle)
 Thermal correction to Energy=                    0.260126
 Thermal correction to Enthalpy=                  0.261070
 Thermal correction to Gibbs Free Energy=         0.200073
 Sum of electronic and zero-point Energies=           -957.002314
 Sum of electronic and thermal Energies=              -956.986542
 Sum of electronic and thermal Enthalpies=            -956.985598
 Sum of electronic and thermal Free Energies=         -957.046595

                     E (Thermal)             CV                S
                      KCal/Mol        Cal/Mol-Kelvin    Cal/Mol-Kelvin
 Total                  163.231             58.757            128.380
 Electronic               0.000              0.000              0.000
 Translational            0.889              2.981             42.029
 Rotational               0.889              2.981             32.653
 Vibrational            161.454             52.796             53.698
 Vibration     1          0.593              1.984              5.904
 Vibration     2          0.594              1.983              5.611
 Vibration     3          0.596              1.976              4.643
 Vibration     4          0.599              1.967              4.078
 Vibration     5          0.603              1.951              3.504
 Vibration     6          0.606              1.942              3.292
 Vibration     7          0.617              1.907              2.725
 Vibration     8          0.635              1.849              2.193
 Vibration     9          0.651              1.798              1.895
 Vibration    10          0.653              1.791              1.858
 Vibration    11          0.661              1.767              1.749
 Vibration    12          0.666              1.753              1.692
 Vibration    13          0.688              1.687              1.457
 Vibration    14          0.708              1.629              1.293
 Vibration    15          0.717              1.603              1.229
 Vibration    16          0.746              1.523              1.059
 Vibration    17          0.756              1.497              1.010
 Vibration    18          0.785              1.421              0.883
 Vibration    19          0.811              1.355              0.787
 Vibration    20          0.818              1.339              0.766
 Vibration    21          0.849              1.265              0.675
 Vibration    22          0.908              1.133              0.538
 Vibration    23          0.915              1.119              0.524
 Vibration    24          0.950              1.049              0.463
 Vibration    25          0.963              1.023              0.442

 Optimization completed.
    -- Stationary point found.
 Normal termination of Gaussian 16 at Thu May 18 03:14:46 2023.
