 Gaussian 16, Revision A.03,
 Gaussian 16:  ES64L-G16RevA.03 25-Dec-2016

 -----------------------------
 # opt freq b3lyp/6-31g(2df,p)
 -----------------------------

 -------------------
 Title Card Required
 -------------------
 Symbolic Z-matrix:
 Charge =  0 Multiplicity = 1

 SCF Done:  E(RB3LYP) =  -1583.59383542     A.U. after   20 cycles
 SCF Done:  E(RB3LYP) =  -1583.65759984     A.U. after   17 cycles
 SCF Done:  E(RB3LYP) =  -1583.71802106     A.U. after   27 cycles
 SCF Done:  E(RB3LYP) =  -1583.71603363     A.U. after   20 cycles
 SCF Done:  E(RB3LYP) =  -1583.79581015     A.U. after   17 cycles
 SCF Done:  E(RB3LYP) =  -1583.82296378     A.U. after   16 cycles
 SCF Done:  E(RB3LYP) =  -1583.85393954     A.U. after   16 cycles
 SCF Done:  E(RB3LYP) =  -1583.86871157     A.U. after   15 cycles
 SCF Done:  E(RB3LYP) =  -1583.89830575     A.U. after   15 cycles
 SCF Done:  E(RB3LYP) =  -1583.91083754     A.U. after   13 cycles
 SCF Done:  E(RB3LYP) =  -1583.97186104     A.U. after   11 cycles
 SCF Done:  E(RB3LYP) =  -1583.97187207     A.U. after   11 cycles
 SCF Done:  E(RB3LYP) =  -1583.97187263     A.U. after    9 cycles
 SCF Done:  E(RB3LYP) =  -1583.97187243     A.U. after    9 cycles
 SCF Done:  E(RB3LYP) =  -1583.97187357     A.U. after   11 cycles
 SCF Done:  E(RB3LYP) =  -1583.97187364     A.U. after   10 cycles
 SCF Done:  E(RB3LYP) =  -1583.97187383     A.U. after    9 cycles
 SCF Done:  E(RB3LYP) =  -1583.97187391     A.U. after    9 cycles
 SCF Done:  E(RB3LYP) =  -1583.97187390     A.U. after    8 cycles
 Optimization completed.
    -- Stationary point found.
 Normal termination of Gaussian 16 at Sat May 20 17:48:49 2023.

 ----------------------------------------------------------------------
 #N Geom=AllCheck Guess=TCheck SCRF=Check GenChk RB3LYP/6-31G(2df,p) Fr
 eq
 ----------------------------------------------------------------------

 Structure from the checkpoint file:  "CdCSC[SH]1SC2dCCC1CCdC2.chk"
 -------------------
 Title Card Required
 -------------------
 Charge =  0 Multiplicity = 1

                         Standard orientation:
 ---------------------------------------------------------------------
 Center     Atomic      Atomic             Coordinates (Angstroms)
 Number     Number       Type             X           Y           Z
 ---------------------------------------------------------------------
      1          6           0       -4.707264   -1.665106   -0.632983
      2          6           0       -3.570780   -1.107473   -0.220038
      3         16           0       -3.429987    0.596116    0.232397
      4          6           0       -1.692235    0.904666   -0.256276
      5         16           0       -1.016381    2.398934    0.535823
      6         16           0        0.731805   -2.077748    0.916960
      7          6           0        1.835379   -1.284086   -0.003131
      8          6           0        3.159956   -0.755972    0.367800
      9          6           0        3.744553    0.153271    1.404597
     10          6           0        2.972659    0.764110    0.254623
     11          6           0        3.162090    1.147995   -1.195374
     12          6           0        2.215798    0.215009   -1.957488
     13          6           0        1.600633   -0.858600   -1.410566
     14          1           0       -4.768052   -2.735205   -0.799965
     15          1           0       -5.610582   -1.087013   -0.795895
     16          1           0       -2.669852   -1.696915   -0.064544
     17          1           0       -1.623659    1.093879   -1.329292
     18          1           0       -1.088869    0.030439   -0.006074
     19          1           0       -1.134058    1.967304    1.806177
     20          1           0        3.917763   -1.079643   -0.343559
     21          1           0        4.829888    0.169910    1.424161
     22          1           0        3.277862    0.274626    2.376447
     23          1           0        1.988780    1.078109    0.600171
     24          1           0        4.194138    0.992734   -1.541104
     25          1           0        2.909672    2.192531   -1.414051
     26          1           0        2.007479    0.466200   -2.995164
     27          1           0        0.877755   -1.426668   -1.987174
 ---------------------------------------------------------------------

 SCF Done:  E(RB3LYP) =  -1583.97187390     A.U. after    1 cycles

 The electronic state is 1-A.
 Alpha  occ. eigenvalues --  -88.88079 -88.87745 -88.84931 -10.26404 -10.24355
 Alpha  occ. eigenvalues --  -10.22122 -10.22039 -10.21900 -10.21519 -10.20975
 Alpha  occ. eigenvalues --  -10.20958 -10.20845 -10.17963  -7.94675  -7.94025
 Alpha  occ. eigenvalues --   -7.91441  -5.91129  -5.90779  -5.90503  -5.90194
 Alpha  occ. eigenvalues --   -5.90149  -5.89575  -5.87759  -5.87686  -5.86987
 Alpha  occ. eigenvalues --   -0.91028  -0.82237  -0.81781  -0.78709  -0.77482
 Alpha  occ. eigenvalues --   -0.71137  -0.70172  -0.65853  -0.62060  -0.60900
 Alpha  occ. eigenvalues --   -0.57750  -0.55355  -0.54277  -0.49898  -0.47195
 Alpha  occ. eigenvalues --   -0.46741  -0.45929  -0.45011  -0.43324  -0.42148
 Alpha  occ. eigenvalues --   -0.41805  -0.40656  -0.39897  -0.38270  -0.37575
 Alpha  occ. eigenvalues --   -0.36609  -0.34704  -0.34265  -0.32051  -0.31246
 Alpha  occ. eigenvalues --   -0.29618  -0.26886  -0.25464  -0.24745  -0.21880
 Alpha  occ. eigenvalues --   -0.21331
 Alpha virt. eigenvalues --   -0.08544  -0.00204   0.02097   0.02638   0.04217
 Alpha virt. eigenvalues --    0.06457   0.07124   0.07857   0.09248   0.09482
 Alpha virt. eigenvalues --    0.10218   0.10526   0.11302   0.12610   0.13423

 Mulliken charges:
               1
     1  C   -0.324964
     2  C   -0.029336
     3  S   -0.084859
     4  C   -0.223357
     5  S   -0.255021
     6  S   -0.374734
     7  C    0.219773
     8  C   -0.053133
     9  C   -0.348501
    10  C    0.013769
    11  C   -0.319448
    12  C   -0.038957
    13  C   -0.099009
    14  H    0.121517
    15  H    0.125297
    16  H    0.138477
    17  H    0.155668
    18  H    0.185896
    19  H    0.176814
    20  H    0.116394
    21  H    0.128015
    22  H    0.139189
    23  H    0.151278
    24  H    0.126626
    25  H    0.123696
    26  H    0.109073
    27  H    0.119838
 Sum of Mulliken charges =  -0.00000

 Dipole moment (field-independent basis, Debye):
    X=              3.7510    Y=              0.7694    Z=             -2.2140  Tot=              4.4231
 Quadrupole moment (field-independent basis, Debye-Ang):
   XX=            -93.2101   YY=           -107.4209   ZZ=            -96.2369
   XY=              7.8677   XZ=             -1.1284   YZ=              3.0937

  Exact polarizability: 189.757  45.166 166.271   2.852  -7.476 139.788
 Approx polarizability: 276.972  78.859 287.845 -15.218 -28.511 243.083

                      1                      2                      3
                      A                      A                      A
 Frequencies --     13.3038                16.9954                19.8209
 Red. masses --      6.2749                 5.9691                 4.4643
 Frc consts  --      0.0007                 0.0010                 0.0010
 IR Inten    --      0.8650                 0.4647                 1.2750

                      4                      5                      6
                      A                      A                      A
 Frequencies --     26.8104                35.9290                44.1958
 Red. masses --      5.2562                 6.6305                 7.0530
 Frc consts  --      0.0022                 0.0050                 0.0081
 IR Inten    --      1.9589                 0.8206                 1.0601

                      7                      8                      9
                      A                      A                      A
 Frequencies --     71.3211                95.1895               109.2505
 Red. masses --      2.6833                 2.6394                 4.3609
 Frc consts  --      0.0080                 0.0141                 0.0307
 IR Inten    --      2.7760                 2.7440                 1.9808

                     10                     11                     12
                      A                      A                      A
 Frequencies --    162.2160               206.1836               244.0535
 Red. masses --      2.9609                 3.9545                 1.5924
 Frc consts  --      0.0459                 0.0990                 0.0559
 IR Inten    --      2.5187                 1.0458                16.8198

                     13                     14                     15
                      A                      A                      A
 Frequencies --    281.8447               293.0056               380.0364
 Red. masses --      2.3334                 3.0862                 2.0770
 Frc consts  --      0.1092                 0.1561                 0.1767
 IR Inten    --     14.8593                 1.4523                 2.0757

                     16                     17                     18
                      A                      A                      A
 Frequencies --    383.6121               408.7975               442.3855
 Red. masses --      3.3683                 3.0913                 4.6244
 Frc consts  --      0.2920                 0.3044                 0.5332
 IR Inten    --      0.4924                 2.4165                 0.4342

                     19                     20                     21
                      A                      A                      A
 Frequencies --    494.8604               592.1038               612.4423
 Red. masses --      3.6393                 2.9793                 1.5058
 Frc consts  --      0.5251                 0.6154                 0.3328
 IR Inten    --      0.2168                15.3942                 9.0007

                     22                     23                     24
                      A                      A                      A
 Frequencies --    661.3211               679.7705               712.8871
 Red. masses --      4.6987                 3.4156                 3.0278
 Frc consts  --      1.2108                 0.9299                 0.9066
 IR Inten    --      2.8773                 0.3443                 6.6203

                     25                     26                     27
                      A                      A                      A
 Frequencies --    713.3346               745.9973               770.9495
 Red. masses --      3.0180                 6.3161                 1.7843
 Frc consts  --      0.9048                 2.0710                 0.6249
 IR Inten    --     11.8617                15.1164                18.6851

                     28                     29                     30
                      A                      A                      A
 Frequencies --    786.6540               805.5427               853.1750
 Red. masses --      1.5173                 4.3931                 2.5871
 Frc consts  --      0.5532                 1.6796                 1.1095
 IR Inten    --      1.8096                18.0200                 2.9269

                     31                     32                     33
                      A                      A                      A
 Frequencies --    894.4071               920.1460               931.6572
 Red. masses --      2.1427                 1.3727                 1.3815
 Frc consts  --      1.0099                 0.6848                 0.7065
 IR Inten    --      9.6031                27.7442                 1.5884

                     34                     35                     36
                      A                      A                      A
 Frequencies --    968.7673               970.2611               997.7093
 Red. masses --      1.2279                 1.9009                 1.2453
 Frc consts  --      0.6790                 1.0544                 0.7304
 IR Inten    --     10.2016                 7.6795                 5.8963

                     37                     38                     39
                      A                      A                      A
 Frequencies --   1002.7302              1030.6884              1047.1518
 Red. masses --      1.0999                 3.4827                 1.3411
 Frc consts  --      0.6516                 2.1798                 0.8664
 IR Inten    --     31.5282                 6.0560                 4.4809

                     40                     41                     42
                      A                      A                      A
 Frequencies --   1065.7212              1097.9256              1106.9876
 Red. masses --      1.4662                 1.2828                 1.5654
 Frc consts  --      0.9812                 0.9111                 1.1302
 IR Inten    --     53.1320                14.6407                13.9538

                     43                     44                     45
                      A                      A                      A
 Frequencies --   1139.6518              1167.3320              1169.5763
 Red. masses --      1.9818                 1.1234                 1.1620
 Frc consts  --      1.5165                 0.9019                 0.9365
 IR Inten    --     28.3779                 4.3108                 4.5002

                     46                     47                     48
                      A                      A                      A
 Frequencies --   1191.2899              1215.0890              1240.8249
 Red. masses --      1.1635                 1.3904                 1.1615
 Frc consts  --      0.9729                 1.2095                 1.0537
 IR Inten    --     21.9679                 4.8170                48.1064

                     49                     50                     51
                      A                      A                      A
 Frequencies --   1246.3999              1302.3247              1308.0734
 Red. masses --      2.2491                 1.2297                 1.6628
 Frc consts  --      2.0586                 1.2288                 1.6763
 IR Inten    --     22.4563                 1.2970                27.9755

                     52                     53                     54
                      A                      A                      A
 Frequencies --   1316.8010              1386.1230              1406.3835
 Red. masses --      1.8411                 1.5168                 1.4510
 Frc consts  --      1.8809                 1.7170                 1.6909
 IR Inten    --     56.6783                35.6240                 4.2648

                     55                     56                     57
                      A                      A                      A
 Frequencies --   1422.1617              1442.0611              1451.9117
 Red. masses --      1.1945                 1.5473                 1.0754
 Frc consts  --      1.4234                 1.8958                 1.3357
 IR Inten    --      3.9556                 1.3217                 2.0755

                     58                     59                     60
                      A                      A                      A
 Frequencies --   1468.3686              1487.2606              1605.1578
 Red. masses --      1.1386                 1.3613                 5.6739
 Frc consts  --      1.4464                 1.7741                 8.6132
 IR Inten    --     11.2526                 1.4343                39.1042

                     61                     62                     63
                      A                      A                      A
 Frequencies --   1656.8492              2673.5139              3011.1618
 Red. masses --      4.2914                 1.0383                 1.0620
 Frc consts  --      6.9408                 4.3726                 5.6732
 IR Inten    --     25.8370                 0.7990                22.0955

                     64                     65                     66
                      A                      A                      A
 Frequencies --   3053.0583              3065.9107              3111.4919
 Red. masses --      1.0982                 1.0548                 1.0840
 Frc consts  --      6.0312                 5.8417                 6.1834
 IR Inten    --     21.4973                 2.2703                 5.0966

                     67                     68                     69
                      A                      A                      A
 Frequencies --   3122.3714              3128.9156              3130.7950
 Red. masses --      1.0853                 1.0554                 1.1115
 Frc consts  --      6.2338                 6.0877                 6.4188
 IR Inten    --      2.1041                16.1135                 8.8556

                     70                     71                     72
                      A                      A                      A
 Frequencies --   3145.4818              3155.4013              3158.3394
 Red. masses --      1.0651                 1.0869                 1.0860
 Frc consts  --      6.2091                 6.3760                 6.3827
 IR Inten    --      1.2256                 9.7050                 5.5573

                     73                     74                     75
                      A                      A                      A
 Frequencies --   3190.0107              3217.2390              3236.9510
 Red. masses --      1.0939                 1.1166                 1.1154
 Frc consts  --      6.5584                 6.8095                 6.8860
 IR Inten    --      7.6751                 3.7237                 5.4851

 - Thermochemistry -
 -------------------
 Temperature   298.150 Kelvin.  Pressure   1.00000 Atm.
 Atom     1 has atomic number  6 and mass  12.00000

 Molecular mass:   230.02577 amu.
 Principal axes and moments of inertia in atomic units:
                           1         2         3
     Eigenvalues --  2377.836246660.052547688.93827
           X            0.99970   0.02422   0.00333
           Y           -0.02427   0.99961   0.01395
           Z           -0.00299  -0.01403   0.99990
 This molecule is an asymmetric top.
 Rotational symmetry number  1.
 Warning -- assumption of classical behavior for rotation
           may cause significant error
 Rotational temperatures (Kelvin)      0.03643     0.01300     0.01126
 Rotational constants (GHZ):           0.75898     0.27098     0.23472
 Zero-point vibrational energy     554603.3 (Joules/Mol)
                                  132.55336 (Kcal/Mol)
 Warning -- explicit consideration of  21 degrees of freedom as
           vibrations may cause significant error
 Vibrational temperatures:     19.14    24.45    28.52    38.57    51.69
          (Kelvin)             63.59   102.62   136.96   157.19   233.39
                              296.65   351.14   405.51   421.57   546.79
                              551.93   588.17   636.49   711.99   851.91
                              881.17   951.49   978.04  1025.69  1026.33
                             1073.32  1109.22  1131.82  1159.00  1227.53
                             1286.85  1323.88  1340.45  1393.84  1395.99
                             1435.48  1442.71  1482.93  1506.62  1533.34
                             1579.67  1592.71  1639.70  1679.53  1682.76
                             1714.00  1748.24  1785.27  1793.29  1873.75
                             1882.03  1894.58  1994.32  2023.47  2046.17
                             2074.80  2088.98  2112.65  2139.84  2309.46
                             2383.84  3846.59  4332.39  4392.67  4411.16
                             4476.74  4492.40  4501.81  4504.52  4525.65
                             4539.92  4544.15  4589.71  4628.89  4657.25

 Zero-point correction=                           0.211237 (Hartree/Particle)
 Thermal correction to Energy=                    0.227476
 Thermal correction to Enthalpy=                  0.228420
 Thermal correction to Gibbs Free Energy=         0.160630
 Sum of electronic and zero-point Energies=          -1583.760637
 Sum of electronic and thermal Energies=             -1583.744398
 Sum of electronic and thermal Enthalpies=           -1583.743453
 Sum of electronic and thermal Free Energies=        -1583.811244

                     E (Thermal)             CV                S
                      KCal/Mol        Cal/Mol-Kelvin    Cal/Mol-Kelvin
 Total                  142.744             55.686            142.678
 Electronic               0.000              0.000              0.000
 Translational            0.889              2.981             42.201
 Rotational               0.889              2.981             33.165
 Vibrational            140.966             49.724             67.312
 Vibration     1          0.593              1.987              7.444
 Vibration     2          0.593              1.986              6.957
 Vibration     3          0.593              1.986              6.652
 Vibration     4          0.593              1.984              6.052
 Vibration     5          0.594              1.982              5.472
 Vibration     6          0.595              1.980              5.062
 Vibration     7          0.598              1.968              4.117
 Vibration     8          0.603              1.953              3.550
 Vibration     9          0.606              1.942              3.282
 Vibration    10          0.622              1.889              2.524
 Vibration    11          0.641              1.831              2.077
 Vibration    12          0.659              1.773              1.773
 Vibration    13          0.681              1.707              1.522
 Vibration    14          0.688              1.687              1.457
 Vibration    15          0.750              1.513              1.039
 Vibration    16          0.753              1.505              1.025
 Vibration    17          0.773              1.451              0.931
 Vibration    18          0.802              1.378              0.819
 Vibration    19          0.850              1.261              0.671
 Vibration    20          0.950              1.049              0.463
 Vibration    21          0.972              1.006              0.429

 Optimization completed.
    -- Stationary point found.
 Normal termination of Gaussian 16 at Sat May 20 18:59:41 2023.
