 Gaussian 16, Revision A.03,
 Gaussian 16:  ES64L-G16RevA.03 25-Dec-2016

 -----------------------------
 # opt freq b3lyp/6-31g(2df,p)
 -----------------------------

 -------------------
 Title Card Required
 -------------------
 Symbolic Z-matrix:
 Charge =  0 Multiplicity = 1

 SCF Done:  E(RB3LYP) =  -1336.45578932     A.U. after   19 cycles
 SCF Done:  E(RB3LYP) =  -1336.39773800     A.U. after   21 cycles
 SCF Done:  E(RB3LYP) =  -1336.53206948     A.U. after   17 cycles
 SCF Done:  E(RB3LYP) =  -1336.62236407     A.U. after   17 cycles
 SCF Done:  E(RB3LYP) =  -1336.74503366     A.U. after   16 cycles
 SCF Done:  E(RB3LYP) =  -1336.77257303     A.U. after   17 cycles
 SCF Done:  E(RB3LYP) =  -1336.82476749     A.U. after   15 cycles
 SCF Done:  E(RB3LYP) =  -1336.72454033     A.U. after   16 cycles
 SCF Done:  E(RB3LYP) =  -1336.88971121     A.U. after   14 cycles
 SCF Done:  E(RB3LYP) =  -1336.85976632     A.U. after   15 cycles
 SCF Done:  E(RB3LYP) =  -1336.94254889     A.U. after    9 cycles
 SCF Done:  E(RB3LYP) =  -1336.94255127     A.U. after   10 cycles
 SCF Done:  E(RB3LYP) =  -1336.94255227     A.U. after   10 cycles
 SCF Done:  E(RB3LYP) =  -1336.94255252     A.U. after    8 cycles
 SCF Done:  E(RB3LYP) =  -1336.94255274     A.U. after    8 cycles
 SCF Done:  E(RB3LYP) =  -1336.94255293     A.U. after    8 cycles
 SCF Done:  E(RB3LYP) =  -1336.94255305     A.U. after    8 cycles
 SCF Done:  E(RB3LYP) =  -1336.94255313     A.U. after    8 cycles
 SCF Done:  E(RB3LYP) =  -1336.94255316     A.U. after    7 cycles
 Optimization completed.
    -- Stationary point found.
 Normal termination of Gaussian 16 at Sat May 20 09:38:47 2023.

 ----------------------------------------------------------------------
 #N Geom=AllCheck Guess=TCheck SCRF=Check GenChk RB3LYP/6-31G(2df,p) Fr
 eq
 ----------------------------------------------------------------------

 Structure from the checkpoint file:  "CdCSSc1ccc2cqc1rCdCCdCCdC2.chk"
 -------------------
 Title Card Required
 -------------------
 Charge =  0 Multiplicity = 1

                         Standard orientation:
 ---------------------------------------------------------------------
 Center     Atomic      Atomic             Coordinates (Angstroms)
 Number     Number       Type             X           Y           Z
 ---------------------------------------------------------------------
      1          6           0       -4.933532   -2.108742    0.514367
      2          6           0       -3.839530   -1.351890    0.521428
      3         16           0       -3.549077   -0.109676   -0.715115
      4         16           0       -2.587398    1.388758    0.335466
      5          6           0       -0.834179    1.145398    0.065868
      6          6           0       -0.021163    2.258191    0.281533
      7          6           0        1.356091    2.136607    0.153312
      8          6           0        1.990597    0.927331   -0.172795
      9          6           0        1.129521   -0.187143   -0.446856
     10          6           0       -0.249743   -0.062628   -0.310286
     11          6           0        1.808550   -1.445765   -0.865141
     12          6           0        2.402070   -2.155591    0.125771
     13          6           0        3.852919   -2.011134    0.025849
     14          6           0        4.258662   -1.022647    0.864667
     15          6           0        4.533190    0.265752    0.171526
     16          6           0        3.497054    1.024007   -0.259944
     17          1           0       -5.048536   -2.921797    1.223137
     18          1           0       -5.736134   -1.958206   -0.199954
     19          1           0       -3.038091   -1.485002    1.240808
     20          1           0       -0.459242    3.216777    0.539394
     21          1           0        1.972467    3.015205    0.321196
     22          1           0       -0.871451   -0.922843   -0.527862
     23          1           0        2.350687   -1.360835   -1.806967
     24          1           0        1.965094   -2.149757    1.121508
     25          1           0        4.287624   -2.071173   -0.969501
     26          1           0        3.722896   -0.918590    1.808669
     27          1           0        5.540394    0.634630   -0.011308
     28          1           0        3.794863    1.985811   -0.680543
 ---------------------------------------------------------------------

 SCF Done:  E(RB3LYP) =  -1336.94255316     A.U. after    1 cycles

 The electronic state is 1-A.
 Alpha  occ. eigenvalues --  -88.90572 -88.90434 -10.22354 -10.22299 -10.21393
 Alpha  occ. eigenvalues --  -10.21268 -10.21099 -10.20692 -10.20189 -10.19810
 Alpha  occ. eigenvalues --  -10.19477 -10.19471 -10.19354 -10.19149 -10.18815
 Alpha  occ. eigenvalues --  -10.18636  -7.96753  -7.96599  -5.93263  -5.93118
 Alpha  occ. eigenvalues --   -5.92858  -5.92700  -5.92292  -5.92136  -0.87720
 Alpha  occ. eigenvalues --   -0.84978  -0.82711  -0.79486  -0.78800  -0.75573
 Alpha  occ. eigenvalues --   -0.73930  -0.69887  -0.66439  -0.63982  -0.60186
 Alpha  occ. eigenvalues --   -0.57538  -0.56803  -0.55539  -0.55218  -0.49029
 Alpha  occ. eigenvalues --   -0.48274  -0.47023  -0.46495  -0.45587  -0.43892
 Alpha  occ. eigenvalues --   -0.43193  -0.42698  -0.41371  -0.40782  -0.39495
 Alpha  occ. eigenvalues --   -0.38412  -0.37887  -0.35702  -0.34968  -0.34783
 Alpha  occ. eigenvalues --   -0.33306  -0.31206  -0.30119  -0.29977  -0.25960
 Alpha  occ. eigenvalues --   -0.25579  -0.23521  -0.21388  -0.19496
 Alpha virt. eigenvalues --   -0.04833  -0.04000  -0.02603  -0.02420  -0.00172
 Alpha virt. eigenvalues --    0.00516   0.03480   0.04661   0.05253   0.10060
 Alpha virt. eigenvalues --    0.10640   0.11552   0.12734   0.13428   0.14116

 Mulliken charges:
               1
     1  C   -0.317603
     2  C   -0.012257
     3  S   -0.062296
     4  S   -0.083931
     5  C    0.168535
     6  C   -0.196561
     7  C   -0.153934
     8  C    0.192924
     9  C    0.201443
    10  C   -0.298760
    11  C   -0.222697
    12  C   -0.090354
    13  C   -0.082432
    14  C   -0.163140
    15  C   -0.121070
    16  C   -0.128235
    17  H    0.129618
    18  H    0.133193
    19  H    0.134267
    20  H    0.112703
    21  H    0.100014
    22  H    0.123388
    23  H    0.103114
    24  H    0.114418
    25  H    0.115535
    26  H    0.105317
    27  H    0.100972
    28  H    0.097831
 Sum of Mulliken charges =  -0.00000

 Dipole moment (field-independent basis, Debye):
    X=              0.9023    Y=             -0.5502    Z=              0.5317  Tot=              1.1830
 Quadrupole moment (field-independent basis, Debye-Ang):
   XX=           -104.0239   YY=           -102.9089   ZZ=           -107.6834
   XY=              8.7015   XZ=             -4.1469   YZ=             -0.9653

  Exact polarizability: 297.418  18.089 189.864   7.416   0.719 115.970
 Approx polarizability: 439.481  27.970 339.138  36.411  14.946 223.759

                      1                      2                      3
                      A                      A                      A
 Frequencies --     13.3135                33.4638                62.0016
 Red. masses --      5.4221                 4.3780                 4.5775
 Frc consts  --      0.0006                 0.0029                 0.0104
 IR Inten    --      0.6450                 1.0497                 1.0918

                      4                      5                      6
                      A                      A                      A
 Frequencies --     79.3089                96.6847               115.6267
 Red. masses --      2.3655                 6.0127                 4.4665
 Frc consts  --      0.0088                 0.0331                 0.0352
 IR Inten    --      0.7934                 0.5939                 0.1845

                      7                      8                      9
                      A                      A                      A
 Frequencies --    158.4035               172.5276               207.1851
 Red. masses --      3.3113                 4.8592                 4.6755
 Frc consts  --      0.0490                 0.0852                 0.1182
 IR Inten    --      7.4757                 1.8594                 1.4861

                     10                     11                     12
                      A                      A                      A
 Frequencies --    248.9039               278.5956               319.5197
 Red. masses --      5.3634                 5.0553                 4.4456
 Frc consts  --      0.1958                 0.2312                 0.2674
 IR Inten    --      0.0522                 0.1756                 3.2559

                     13                     14                     15
                      A                      A                      A
 Frequencies --    328.9101               355.9148               372.8342
 Red. masses --      4.1681                 2.5957                 6.4233
 Frc consts  --      0.2657                 0.1937                 0.5261
 IR Inten    --      0.6728                32.1613                 6.1921

                     16                     17                     18
                      A                      A                      A
 Frequencies --    389.2364               448.2084               461.4856
 Red. masses --      4.3005                 2.9372                 3.3911
 Frc consts  --      0.3839                 0.3476                 0.4255
 IR Inten    --      5.3411                 4.0079                 7.5399

                     19                     20                     21
                      A                      A                      A
 Frequencies --    495.7967               524.1573               567.6345
 Red. masses --      4.5499                14.3906                 4.3881
 Frc consts  --      0.6590                 2.3294                 0.8330
 IR Inten    --      1.8114                 0.9032                 0.6005

                     22                     23                     24
                      A                      A                      A
 Frequencies --    584.6018               603.2380               609.7230
 Red. masses --      3.5952                 1.6492                 3.8746
 Frc consts  --      0.7239                 0.3536                 0.8487
 IR Inten    --      9.0287                10.2050                 0.3313

                     25                     26                     27
                      A                      A                      A
 Frequencies --    663.3568               703.6852               706.2136
 Red. masses --      5.0235                 3.5135                 3.6723
 Frc consts  --      1.3024                 1.0251                 1.0791
 IR Inten    --      5.0127                 8.7003                 9.0001

                     28                     29                     30
                      A                      A                      A
 Frequencies --    729.4453               745.5853               775.3846
 Red. masses --      1.8899                 2.3351                 2.9138
 Frc consts  --      0.5925                 0.7648                 1.0322
 IR Inten    --     17.9557               158.0595                92.5143

                     31                     32                     33
                      A                      A                      A
 Frequencies --    795.4058               818.9804               853.1548
 Red. masses --      2.2099                 1.6438                 1.6999
 Frc consts  --      0.8238                 0.6496                 0.7290
 IR Inten    --     44.7598                36.1767                19.2733

                     34                     35                     36
                      A                      A                      A
 Frequencies --    895.7267               913.3753               930.1591
 Red. masses --      2.7591                 1.9253                 1.3781
 Frc consts  --      1.3043                 0.9464                 0.7025
 IR Inten    --     16.0897                 9.9631                25.9953

                     37                     38                     39
                      A                      A                      A
 Frequencies --    954.3417               982.4255               991.7350
 Red. masses --      1.3180                 1.3202                 1.0918
 Frc consts  --      0.7073                 0.7507                 0.6327
 IR Inten    --      0.0304                 4.3675                20.3891

                     40                     41                     42
                      A                      A                      A
 Frequencies --   1007.5358              1035.9679              1036.7347
 Red. masses --      1.2002                 3.5608                 1.3474
 Frc consts  --      0.7179                 2.2516                 0.8533
 IR Inten    --     32.1249                 3.2942                10.3993

                     43                     44                     45
                      A                      A                      A
 Frequencies --   1081.3489              1089.3646              1120.3463
 Red. masses --      2.8220                 1.5329                 2.1448
 Frc consts  --      1.9442                 1.0718                 1.5861
 IR Inten    --      3.8948                26.4078                 3.3345

                     46                     47                     48
                      A                      A                      A
 Frequencies --   1136.1184              1166.5567              1202.5857
 Red. masses --      2.4859                 2.0664                 2.0489
 Frc consts  --      1.8905                 1.6569                 1.7458
 IR Inten    --      8.2926                 3.3033                 1.7543

                     49                     50                     51
                      A                      A                      A
 Frequencies --   1213.4217              1243.1446              1282.6633
 Red. masses --      1.1593                 1.6106                 1.2563
 Frc consts  --      1.0057                 1.4665                 1.2178
 IR Inten    --      0.7775                 0.1567                 7.5822

                     52                     53                     54
                      A                      A                      A
 Frequencies --   1289.7074              1303.0380              1317.0772
 Red. masses --      1.5386                 2.0579                 1.2442
 Frc consts  --      1.5079                 2.0587                 1.2716
 IR Inten    --      4.8820                 1.6515                 2.5134

                     55                     56                     57
                      A                      A                      A
 Frequencies --   1325.2885              1345.5314              1400.0446
 Red. masses --      1.5056                 1.3249                 1.4788
 Frc consts  --      1.5581                 1.4133                 1.7079
 IR Inten    --      6.8918                 0.8945                 0.3095

                     58                     59                     60
                      A                      A                      A
 Frequencies --   1417.9643              1426.4502              1484.3979
 Red. masses --      1.2004                 2.9223                 2.5158
 Frc consts  --      1.4220                 3.5034                 3.2661
 IR Inten    --      2.7474                16.7831                25.8092

                     61                     62                     63
                      A                      A                      A
 Frequencies --   1532.1440              1556.3008              1560.7507
 Red. masses --      4.6645                 5.0314                 5.1754
 Frc consts  --      6.4513                 7.1800                 7.4278
 IR Inten    --     15.9264                34.6095                 3.7140

                     64                     65                     66
                      A                      A                      A
 Frequencies --   1611.0944              1618.9839              1652.8031
 Red. masses --      6.9015                 6.0538                 4.2571
 Frc consts  --     10.5545                 9.3489                 6.8519
 IR Inten    --      7.3818                69.6215                27.0051

                     67                     68                     69
                      A                      A                      A
 Frequencies --   3102.7218              3105.1145              3108.8084
 Red. masses --      1.0841                 1.0836                 1.0844
 Frc consts  --      6.1488                 6.1555                 6.1751
 IR Inten    --     15.1948                 5.7864                 7.2144

                     70                     71                     72
                      A                      A                      A
 Frequencies --   3141.5729              3146.2005              3151.0088
 Red. masses --      1.0907                 1.0887                 1.0575
 Frc consts  --      6.3425                 6.3492                 6.1860
 IR Inten    --     39.5975                12.3013                 1.0516

                     73                     74                     75
                      A                      A                      A
 Frequencies --   3154.9681              3163.3605              3184.8753
 Red. masses --      1.0884                 1.0865                 1.0952
 Frc consts  --      6.3832                 6.4057                 6.5451
 IR Inten    --     15.8153                11.1397                 2.6576

                     76                     77                     78
                      A                      A                      A
 Frequencies --   3185.3945              3198.5575              3238.6701
 Red. masses --      1.0933                 1.0892                 1.1153
 Frc consts  --      6.5363                 6.5657                 6.8928
 IR Inten    --      8.5602                 0.3131                 3.2262

 - Thermochemistry -
 -------------------
 Temperature   298.150 Kelvin.  Pressure   1.00000 Atm.
 Atom     1 has atomic number  6 and mass  12.00000

 Molecular mass:   244.03804 amu.
 Principal axes and moments of inertia in atomic units:
                           1         2         3
     Eigenvalues --  1963.373288220.140869727.41001
           X            0.99987   0.01516  -0.00463
           Y           -0.01519   0.99986  -0.00692
           Z            0.00452   0.00699   0.99997
 This molecule is an asymmetric top.
 Rotational symmetry number  1.
 Warning -- assumption of classical behavior for rotation
           may cause significant error
 Rotational temperatures (Kelvin)      0.04411     0.01054     0.00890
 Rotational constants (GHZ):           0.91920     0.21955     0.18553
 Zero-point vibrational energy     558206.7 (Joules/Mol)
                                  133.41460 (Kcal/Mol)
 Warning -- explicit consideration of  24 degrees of freedom as
           vibrations may cause significant error
 Vibrational temperatures:     19.16    48.15    89.21   114.11   139.11
          (Kelvin)            166.36   227.91   248.23   298.09   358.12
                              400.84   459.72   473.23   512.08   536.43
                              560.02   644.87   663.97   713.34   754.15
                              816.70   841.11   867.92   877.26   954.42
                             1012.45  1016.08  1049.51  1072.73  1115.61
                             1144.41  1178.33  1227.50  1288.75  1314.14
                             1338.29  1373.08  1413.49  1426.89  1449.62
                             1490.53  1491.63  1555.82  1567.35  1611.93
                             1634.62  1678.41  1730.25  1745.84  1788.61
                             1845.47  1855.60  1874.78  1894.98  1906.79
                             1935.92  2014.35  2040.13  2052.34  2135.72
                             2204.41  2239.17  2245.57  2318.01  2329.36
                             2378.02  4464.12  4467.57  4472.88  4520.02
                             4526.68  4533.60  4539.30  4551.37  4582.33
                             4583.07  4602.01  4659.72

 Zero-point correction=                           0.212610 (Hartree/Particle)
 Thermal correction to Energy=                    0.227883
 Thermal correction to Enthalpy=                  0.228828
 Thermal correction to Gibbs Free Energy=         0.167740
 Sum of electronic and zero-point Energies=          -1336.729943
 Sum of electronic and thermal Energies=             -1336.714670
 Sum of electronic and thermal Enthalpies=           -1336.713726
 Sum of electronic and thermal Free Energies=        -1336.774814

                     E (Thermal)             CV                S
                      KCal/Mol        Cal/Mol-Kelvin    Cal/Mol-Kelvin
 Total                  142.999             57.811            128.570
 Electronic               0.000              0.000              0.000
 Translational            0.889              2.981             42.377
 Rotational               0.889              2.981             33.417
 Vibrational            141.221             51.850             52.776
 Vibration     1          0.593              1.987              7.442
 Vibration     2          0.594              1.983              5.613
 Vibration     3          0.597              1.972              4.392
 Vibration     4          0.600              1.963              3.908
 Vibration     5          0.603              1.952              3.520
 Vibration     6          0.608              1.936              3.172
 Vibration     7          0.621              1.893              2.569
 Vibration     8          0.626              1.876              2.408
 Vibration     9          0.641              1.830              2.068
 Vibration    10          0.662              1.765              1.738
 Vibration    11          0.679              1.713              1.542
 Vibration    12          0.705              1.636              1.313
 Vibration    13          0.712              1.618              1.265
 Vibration    14          0.731              1.563              1.140
 Vibration    15          0.744              1.528              1.068
 Vibration    16          0.757              1.493              1.003
 Vibration    17          0.807              1.365              0.801
 Vibration    18          0.819              1.335              0.762
 Vibration    19          0.851              1.259              0.669
 Vibration    20          0.879              1.197              0.600
 Vibration    21          0.924              1.101              0.509
 Vibration    22          0.942              1.065              0.477
 Vibration    23          0.962              1.025              0.444
 Vibration    24          0.969              1.011              0.433

 Optimization completed.
    -- Stationary point found.
 Normal termination of Gaussian 16 at Sat May 20 11:53:18 2023.
