 Gaussian 16, Revision A.03,
 Gaussian 16:  ES64L-G16RevA.03 25-Dec-2016

 -----------------------------
 # opt freq b3lyp/6-31g(2df,p)
 -----------------------------

 -------------------
 Title Card Required
 -------------------
 Symbolic Z-matrix:
 Charge =  0 Multiplicity = 1

 SCF Done:  E(RB3LYP) =  -595.007149561     A.U. after   15 cycles
 SCF Done:  E(RB3LYP) =  -595.016293937     A.U. after   13 cycles
 SCF Done:  E(RB3LYP) =  -595.017196299     A.U. after   12 cycles
 SCF Done:  E(RB3LYP) =  -595.017558240     A.U. after   11 cycles
 SCF Done:  E(RB3LYP) =  -595.017669297     A.U. after   12 cycles
 SCF Done:  E(RB3LYP) =  -595.017695438     A.U. after   12 cycles
 SCF Done:  E(RB3LYP) =  -595.017844376     A.U. after   12 cycles
 SCF Done:  E(RB3LYP) =  -595.017997888     A.U. after   13 cycles
 SCF Done:  E(RB3LYP) =  -595.018067325     A.U. after   13 cycles
 SCF Done:  E(RB3LYP) =  -595.018262704     A.U. after   11 cycles
 SCF Done:  E(RB3LYP) =  -595.019570399     A.U. after   13 cycles
 SCF Done:  E(RB3LYP) =  -595.019854157     A.U. after   13 cycles
 SCF Done:  E(RB3LYP) =  -595.019801028     A.U. after   14 cycles
 SCF Done:  E(RB3LYP) =  -595.019920004     A.U. after   13 cycles
 SCF Done:  E(RB3LYP) =  -595.020042304     A.U. after   12 cycles
 SCF Done:  E(RB3LYP) =  -595.020066949     A.U. after   11 cycles
 SCF Done:  E(RB3LYP) =  -595.020068296     A.U. after   10 cycles
 SCF Done:  E(RB3LYP) =  -595.020068451     A.U. after    8 cycles
 SCF Done:  E(RB3LYP) =  -595.020068483     A.U. after    7 cycles
 Optimization completed.
    -- Stationary point found.
 Normal termination of Gaussian 16 at Thu May 18 05:38:05 2023.

 ----------------------------------------------------------------------
 #N Geom=AllCheck Guess=TCheck SCRF=Check GenChk RB3LYP/6-31G(2df,p) Fr
 eq
 ----------------------------------------------------------------------

 Structure from the checkpoint file:  "CdNC1dCCdCCdCqCCCdOrC1dC.chk"
 -------------------
 Title Card Required
 -------------------
 Charge =  0 Multiplicity = 1

                         Standard orientation:
 ---------------------------------------------------------------------
 Center     Atomic      Atomic             Coordinates (Angstroms)
 Number     Number       Type             X           Y           Z
 ---------------------------------------------------------------------
      1          6           0        4.028825   -1.572246   -0.228465
      2          7           0        2.849766   -1.361121   -0.644897
      3          6           0        2.093875   -0.280554   -0.171744
      4          6           0        2.617601    0.972088   -0.290717
      5          6           0        2.027452    2.236744    0.016283
      6          6           0        0.719288    2.500345    0.248020
      7          6           0       -0.377916    1.576991    0.210371
      8          6           0       -0.400678    0.219465    0.237280
      9          6           0       -1.739257   -0.503536    0.174788
     10          6           0       -2.961280    0.311730   -0.275890
     11          6           0       -4.150414   -0.591143   -0.522943
     12          8           0       -5.230990   -0.466300   -0.008476
     13          6           0        0.769674   -0.676922    0.373863
     14          6           0        0.648539   -1.919708    0.883134
     15          1           0        4.611437   -2.380961   -0.669289
     16          1           0        4.504007   -0.976615    0.560755
     17          1           0        3.628547    1.014194   -0.686788
     18          1           0        2.713102    3.080110    0.011018
     19          1           0        0.443950    3.538288    0.414290
     20          1           0       -1.345728    2.067313    0.174388
     21          1           0       -1.959039   -0.936020    1.160776
     22          1           0       -1.619014   -1.366762   -0.493143
     23          1           0       -2.732107    0.817190   -1.224991
     24          1           0       -3.258480    1.068494    0.454381
     25          1           0       -3.952938   -1.417644   -1.246564
     26          1           0       -0.284719   -2.299901    1.274446
     27          1           0        1.496278   -2.588960    0.928928
 ---------------------------------------------------------------------

 SCF Done:  E(RB3LYP) =  -595.020068483     A.U. after    1 cycles

 The electronic state is 1-A.
 Alpha  occ. eigenvalues --  -19.14060 -14.34792 -10.27273 -10.23838 -10.23353
 Alpha  occ. eigenvalues --  -10.20982 -10.20320 -10.20296 -10.19844 -10.19444
 Alpha  occ. eigenvalues --  -10.19270 -10.19159 -10.19118 -10.17102  -1.04755
 Alpha  occ. eigenvalues --   -0.94822  -0.85055  -0.80896  -0.78716  -0.76326
 Alpha  occ. eigenvalues --   -0.70935  -0.68889  -0.64662  -0.61130  -0.59114
 Alpha  occ. eigenvalues --   -0.57910  -0.53405  -0.51831  -0.50634  -0.48704
 Alpha  occ. eigenvalues --   -0.47340  -0.46292  -0.44773  -0.44243  -0.43487
 Alpha  occ. eigenvalues --   -0.42420  -0.41206  -0.40185  -0.38167  -0.37005
 Alpha  occ. eigenvalues --   -0.36282  -0.35804  -0.34787  -0.33972  -0.32884
 Alpha  occ. eigenvalues --   -0.30118  -0.28289  -0.25663  -0.25194  -0.19295
 Alpha virt. eigenvalues --   -0.05857  -0.02802  -0.02208  -0.01336   0.08587
 Alpha virt. eigenvalues --    0.09804   0.10499   0.11022   0.11608   0.12209
 Alpha virt. eigenvalues --    0.12303   0.14307   0.15573   0.15948   0.16461

 Mulliken charges:
               1
     1  C   -0.215014
     2  N   -0.129535
     3  C    0.185644
     4  C   -0.141539
     5  C   -0.097017
     6  C   -0.119730
     7  C   -0.135868
     8  C    0.147116
     9  C   -0.280985
    10  C   -0.298530
    11  C    0.151763
    12  O   -0.234943
    13  C    0.158442
    14  C   -0.413078
    15  H    0.128333
    16  H    0.115208
    17  H    0.090704
    18  H    0.096043
    19  H    0.093921
    20  H    0.090356
    21  H    0.133884
    22  H    0.124595
    23  H    0.128166
    24  H    0.129845
    25  H    0.073587
    26  H    0.105145
    27  H    0.113487
 Sum of Mulliken charges =  -0.00000

 Dipole moment (field-independent basis, Debye):
    X=              3.5216    Y=              0.6731    Z=             -0.1684  Tot=              3.5894
 Quadrupole moment (field-independent basis, Debye-Ang):
   XX=            -90.4723   YY=            -77.4512   ZZ=            -84.0305
   XY=             -2.2087   XZ=              3.7504   YZ=             -1.1303

  Exact polarizability: 196.720  -8.720 173.022 -10.429  -2.915  78.448
 Approx polarizability: 278.515 -10.327 325.439 -22.866 -11.023 133.251

                      1                      2                      3
                      A                      A                      A
 Frequencies --     26.6996                51.2951                73.2929
 Red. masses --      4.7346                 5.7604                 3.8335
 Frc consts  --      0.0020                 0.0089                 0.0121
 IR Inten    --      0.2581                 4.4227                 3.5667

                      4                      5                      6
                      A                      A                      A
 Frequencies --    106.0038               113.2544               139.1557
 Red. masses --      2.1413                 3.8795                 3.3278
 Frc consts  --      0.0142                 0.0293                 0.0380
 IR Inten    --      0.8531                 2.8674                 5.4416

                      7                      8                      9
                      A                      A                      A
 Frequencies --    166.6670               211.3582               255.4384
 Red. masses --      3.3538                 2.8981                 4.1707
 Frc consts  --      0.0549                 0.0763                 0.1603
 IR Inten    --      1.2862                 4.8225                 2.8937

                     10                     11                     12
                      A                      A                      A
 Frequencies --    301.4976               315.8100               348.5210
 Red. masses --      4.0208                 3.1602                 3.6046
 Frc consts  --      0.2153                 0.1857                 0.2580
 IR Inten    --      1.6991                 1.5736                 0.0941

                     13                     14                     15
                      A                      A                      A
 Frequencies --    385.1022               401.5285               439.1103
 Red. masses --      3.4566                 3.7100                 4.4445
 Frc consts  --      0.3020                 0.3524                 0.5049
 IR Inten    --      3.0350                 0.7193                 2.5607

                     16                     17                     18
                      A                      A                      A
 Frequencies --    490.5549               524.6755               551.4414
 Red. masses --      2.4152                 3.5124                 2.4972
 Frc consts  --      0.3424                 0.5697                 0.4474
 IR Inten    --      4.0869                 6.7616                16.5028

                     19                     20                     21
                      A                      A                      A
 Frequencies --    586.9195               642.2901               705.7172
 Red. masses --      2.3984                 3.1270                 2.0829
 Frc consts  --      0.4868                 0.7600                 0.6112
 IR Inten    --      0.3195                 8.7776                 0.8955

                     22                     23                     24
                      A                      A                      A
 Frequencies --    711.2874               741.7404               769.8044
 Red. masses --      1.7766                 2.1031                 1.4725
 Frc consts  --      0.5296                 0.6817                 0.5141
 IR Inten    --      2.5914                11.6815                15.6448

                     25                     26                     27
                      A                      A                      A
 Frequencies --    786.7515               792.1934               808.7548
 Red. masses --      1.4760                 2.1040                 2.9711
 Frc consts  --      0.5383                 0.7779                 1.1450
 IR Inten    --      0.1060                 6.1186                18.7453

                     28                     29                     30
                      A                      A                      A
 Frequencies --    862.0129               886.0229               904.2566
 Red. masses --      1.5495                 1.5090                 2.4855
 Frc consts  --      0.6784                 0.6979                 1.1974
 IR Inten    --      6.4221                26.7586                 6.4520

                     31                     32                     33
                      A                      A                      A
 Frequencies --    919.6193               940.3372               990.8513
 Red. masses --      1.5867                 1.4251                 1.2752
 Frc consts  --      0.7906                 0.7424                 0.7377
 IR Inten    --      0.9773                 6.4195                 0.4239

                     34                     35                     36
                      A                      A                      A
 Frequencies --    996.8100              1019.5258              1051.8887
 Red. masses --      2.8210                 2.9698                 1.3567
 Frc consts  --      1.6515                 1.8188                 0.8845
 IR Inten    --     12.9804                17.1828                15.4302

                     37                     38                     39
                      A                      A                      A
 Frequencies --   1067.4546              1094.4930              1102.9723
 Red. masses --      2.2231                 1.9064                 3.0220
 Frc consts  --      1.4925                 1.3455                 2.1661
 IR Inten    --      2.7424                14.7044                11.5109

                     40                     41                     42
                      A                      A                      A
 Frequencies --   1138.7933              1148.3007              1209.1346
 Red. masses --      2.6672                 2.6918                 1.3646
 Frc consts  --      2.0380                 2.0913                 1.1754
 IR Inten    --      8.7497                11.6001                20.1549

                     43                     44                     45
                      A                      A                      A
 Frequencies --   1210.9492              1262.8201              1276.2560
 Red. masses --      1.4524                 1.4287                 1.2014
 Frc consts  --      1.2549                 1.3424                 1.1529
 IR Inten    --     18.8455                 0.6445                 3.5526

                     46                     47                     48
                      A                      A                      A
 Frequencies --   1290.1196              1314.5142              1360.0620
 Red. masses --      1.8995                 1.1325                 1.4897
 Frc consts  --      1.8628                 1.1530                 1.6235
 IR Inten    --      7.6818                 8.4915                12.5239

                     49                     50                     51
                      A                      A                      A
 Frequencies --   1394.7511              1423.5813              1428.9145
 Red. masses --      1.5947                 1.5456                 1.1880
 Frc consts  --      1.8278                 1.8455                 1.4291
 IR Inten    --      6.2516                 1.8087                 5.8860

                     52                     53                     54
                      A                      A                      A
 Frequencies --   1449.2606              1467.4697              1477.5538
 Red. masses --      1.3770                 1.0926                 1.7194
 Frc consts  --      1.7040                 1.3863                 2.2116
 IR Inten    --      1.0599                 1.0329                 0.2579

                     55                     56                     57
                      A                      A                      A
 Frequencies --   1481.0311              1500.2722              1572.9754
 Red. masses --      1.1516                 1.1690                 5.9727
 Frc consts  --      1.4882                 1.5502                 8.7069
 IR Inten    --      5.0330                 5.6030                 6.2477

                     58                     59                     60
                      A                      A                      A
 Frequencies --   1632.5125              1638.8748              1682.6146
 Red. masses --      3.9875                 6.4568                 4.8984
 Frc consts  --      6.2613                10.2179                 8.1711
 IR Inten    --     53.2972                11.7664                 7.4855

                     61                     62                     63
                      A                      A                      A
 Frequencies --   1714.5657              1837.6917              2850.1705
 Red. masses --      6.6798                10.1317                 1.0818
 Frc consts  --     11.5697                20.1594                 5.1775
 IR Inten    --     22.9212               228.9237               100.7866

                     64                     65                     66
                      A                      A                      A
 Frequencies --   3005.4314              3017.9733              3027.0245
 Red. masses --      1.0620                 1.0639                 1.0611
 Frc consts  --      5.6516                 5.7095                 5.7286
 IR Inten    --      6.9084                10.9908                35.5612

                     67                     68                     69
                      A                      A                      A
 Frequencies --   3038.8331              3105.4424              3146.4856
 Red. masses --      1.0967                 1.0969                 1.0821
 Frc consts  --      5.9667                 6.2326                 6.3118
 IR Inten    --     10.5493                12.4030                 2.4881

                     70                     71                     72
                      A                      A                      A
 Frequencies --   3151.7199              3158.8113              3169.7355
 Red. masses --      1.1082                 1.0868                 1.0889
 Frc consts  --      6.4859                 6.3891                 6.4459
 IR Inten    --     25.9267                 7.2297                23.8849

                     73                     74                     75
                      A                      A                      A
 Frequencies --   3179.9273              3189.9749              3270.7702
 Red. masses --      1.0909                 1.0594                 1.1144
 Frc consts  --      6.4991                 6.3514                 7.0240
 IR Inten    --     20.4418                 0.9890                 5.9359

 - Thermochemistry -
 -------------------
 Temperature   298.150 Kelvin.  Pressure   1.00000 Atm.
 Atom     1 has atomic number  6 and mass  12.00000

 Molecular mass:   187.09971 amu.
 Principal axes and moments of inertia in atomic units:
                           1         2         3
     Eigenvalues --  1364.335565150.060826270.26100
           X            0.99999  -0.00355   0.00239
           Y            0.00357   0.99997  -0.00728
           Z           -0.00237   0.00728   0.99997
 This molecule is an asymmetric top.
 Rotational symmetry number  1.
 Warning -- assumption of classical behavior for rotation
           may cause significant error
 Rotational temperatures (Kelvin)      0.06348     0.01682     0.01381
 Rotational constants (GHZ):           1.32280     0.35043     0.28783
 Zero-point vibrational energy     577248.6 (Joules/Mol)
                                  137.96572 (Kcal/Mol)
 Warning -- explicit consideration of  19 degrees of freedom as
           vibrations may cause significant error
 Vibrational temperatures:     38.41    73.80   105.45   152.52   162.95
          (Kelvin)            200.21   239.80   304.10   367.52   433.79
                              454.38   501.44   554.08   577.71   631.78
                              705.80   754.89   793.40   844.45   924.11
                             1015.37  1023.38  1067.20  1107.58  1131.96
                             1139.79  1163.62  1240.24  1274.79  1301.02
                             1323.13  1352.94  1425.61  1434.19  1466.87
                             1513.43  1535.83  1574.73  1586.93  1638.47
                             1652.15  1739.68  1742.29  1816.92  1836.25
                             1856.19  1891.29  1956.83  2006.74  2048.22
                             2055.89  2085.16  2111.36  2125.87  2130.87
                             2158.56  2263.16  2348.82  2357.98  2420.91
                             2466.88  2644.03  4100.76  4324.15  4342.19
                             4355.21  4372.20  4468.04  4527.09  4534.62
                             4544.82  4560.54  4575.21  4589.66  4705.91

 Zero-point correction=                           0.219862 (Hartree/Particle)
 Thermal correction to Energy=                    0.233272
 Thermal correction to Enthalpy=                  0.234216
 Thermal correction to Gibbs Free Energy=         0.178612
 Sum of electronic and zero-point Energies=           -594.800206
 Sum of electronic and thermal Energies=              -594.786796
 Sum of electronic and thermal Enthalpies=            -594.785852
 Sum of electronic and thermal Free Energies=         -594.841456

                     E (Thermal)             CV                S
                      KCal/Mol        Cal/Mol-Kelvin    Cal/Mol-Kelvin
 Total                  146.381             50.448            117.029
 Electronic               0.000              0.000              0.000
 Translational            0.889              2.981             41.585
 Rotational               0.889              2.981             32.155
 Vibrational            144.603             44.486             43.289
 Vibration     1          0.593              1.984              6.061
 Vibration     2          0.596              1.977              4.767
 Vibration     3          0.599              1.967              4.063
 Vibration     4          0.605              1.944              3.341
 Vibration     5          0.607              1.938              3.212
 Vibration     6          0.615              1.914              2.815
 Vibration     7          0.624              1.883              2.473
 Vibration     8          0.643              1.824              2.032
 Vibration     9          0.666              1.754              1.693
 Vibration    10          0.693              1.671              1.409
 Vibration    11          0.703              1.643              1.332
 Vibration    12          0.726              1.578              1.173
 Vibration    13          0.754              1.502              1.019
 Vibration    14          0.767              1.467              0.957
 Vibration    15          0.799              1.385              0.829
 Vibration    16          0.846              1.271              0.682
 Vibration    17          0.880              1.195              0.599
 Vibration    18          0.907              1.137              0.541
 Vibration    19          0.944              1.060              0.473

 Optimization completed.
    -- Stationary point found.
 Normal termination of Gaussian 16 at Thu May 18 07:09:10 2023.
