 Gaussian 16, Revision A.03,
 Gaussian 16:  ES64L-G16RevA.03 25-Dec-2016

 -----------------------------
 # opt freq b3lyp/6-31g(2df,p)
 -----------------------------

 -------------------
 Title Card Required
 -------------------
 Symbolic Z-matrix:
 Charge =  0 Multiplicity = 1

 SCF Done:  E(RB3LYP) =  -516.344056430     A.U. after   16 cycles
 SCF Done:  E(RB3LYP) =  -516.355522222     A.U. after   15 cycles
 SCF Done:  E(RB3LYP) =  -516.352490971     A.U. after   14 cycles
 SCF Done:  E(RB3LYP) =  -516.356498566     A.U. after   14 cycles
 SCF Done:  E(RB3LYP) =  -516.360838602     A.U. after   14 cycles
 SCF Done:  E(RB3LYP) =  -516.365295002     A.U. after   14 cycles
 SCF Done:  E(RB3LYP) =  -516.372483342     A.U. after   16 cycles
 SCF Done:  E(RB3LYP) =  -516.376894341     A.U. after   14 cycles
 SCF Done:  E(RB3LYP) =  -516.379098125     A.U. after   13 cycles
 SCF Done:  E(RB3LYP) =  -516.379705914     A.U. after   14 cycles
 SCF Done:  E(RB3LYP) =  -516.379998196     A.U. after   12 cycles
 SCF Done:  E(RB3LYP) =  -516.380109687     A.U. after   11 cycles
 SCF Done:  E(RB3LYP) =  -516.380135102     A.U. after   11 cycles
 SCF Done:  E(RB3LYP) =  -516.380155221     A.U. after    9 cycles
 SCF Done:  E(RB3LYP) =  -516.380157519     A.U. after    9 cycles
 SCF Done:  E(RB3LYP) =  -516.380157961     A.U. after    8 cycles
 SCF Done:  E(RB3LYP) =  -516.380158038     A.U. after    7 cycles
 Optimization completed.
    -- Stationary point found.
 Normal termination of Gaussian 16 at Tue May 16 17:47:13 2023.

 ----------------------------------------------------------------------
 #N Geom=AllCheck Guess=TCheck SCRF=Check GenChk RB3LYP/6-31G(2df,p) Fr
 eq
 ----------------------------------------------------------------------

 Structure from the checkpoint file:  "CdNC1dCCdCCdCCdC1CdO.chk"
 -------------------
 Title Card Required
 -------------------
 Charge =  0 Multiplicity = 1

                         Standard orientation:
 ---------------------------------------------------------------------
 Center     Atomic      Atomic             Coordinates (Angstroms)
 Number     Number       Type             X           Y           Z
 ---------------------------------------------------------------------
      1          6           0        2.660491    1.461010   -0.724702
      2          7           0        1.673566    0.766478   -1.106642
      3          6           0        0.582804    0.540486   -0.251414
      4          6           0       -0.150840    1.546620    0.248526
      5          6           0       -1.385261    1.439747    1.024011
      6          6           0       -2.493050    0.742935    0.722545
      7          6           0       -2.747984   -0.095222   -0.449421
      8          6           0       -1.996943   -1.085815   -0.960374
      9          6           0       -0.752178   -1.599723   -0.401926
     10          6           0        0.337986   -0.914426   -0.017455
     11          6           0        1.424670   -1.675902    0.635515
     12          8           0        2.424328   -1.189865    1.112932
     13          1           0        3.471531    1.661341   -1.424960
     14          1           0        2.748674    1.870935    0.287424
     15          1           0        0.196821    2.559515    0.050412
     16          1           0       -1.436384    2.090987    1.896298
     17          1           0       -3.355582    0.875565    1.374206
     18          1           0       -3.724208    0.060407   -0.908451
     19          1           0       -2.413841   -1.664853   -1.782352
     20          1           0       -0.715514   -2.684864   -0.278558
     21          1           0        1.240752   -2.773707    0.677190
 ---------------------------------------------------------------------

 SCF Done:  E(RB3LYP) =  -516.380158038     A.U. after    1 cycles

 The electronic state is 1-A.
 Alpha  occ. eigenvalues --  -19.13111 -14.33918 -10.26423 -10.23113 -10.22648
 Alpha  occ. eigenvalues --  -10.21785 -10.20591 -10.20577 -10.20211 -10.19857
 Alpha  occ. eigenvalues --  -10.19379 -10.18660  -1.03751  -0.93842  -0.84522
 Alpha  occ. eigenvalues --   -0.79998  -0.78555  -0.71817  -0.68586  -0.63519
 Alpha  occ. eigenvalues --   -0.59943  -0.58136  -0.54589  -0.51068  -0.49333
 Alpha  occ. eigenvalues --   -0.47931  -0.47080  -0.46441  -0.44937  -0.43957
 Alpha  occ. eigenvalues --   -0.42516  -0.39234  -0.38561  -0.37833  -0.35602
 Alpha  occ. eigenvalues --   -0.33285  -0.32131  -0.28959  -0.28434  -0.25648
 Alpha  occ. eigenvalues --   -0.25003  -0.21115
 Alpha virt. eigenvalues --   -0.07304  -0.03364  -0.00623   0.03139   0.04899
 Alpha virt. eigenvalues --    0.09038   0.09319   0.11257   0.12912   0.13662
 Alpha virt. eigenvalues --    0.16000   0.16939   0.17444   0.18180   0.18759

 Mulliken charges:
               1
     1  C   -0.188801
     2  N   -0.155277
     3  C    0.204410
     4  C   -0.179189
     5  C   -0.104049
     6  C   -0.109318
     7  C   -0.078198
     8  C   -0.128801
     9  C   -0.140370
    10  C    0.116177
    11  C    0.111761
    12  O   -0.281087
    13  H    0.125381
    14  H    0.121017
    15  H    0.094220
    16  H    0.100729
    17  H    0.099649
    18  H    0.106598
    19  H    0.106032
    20  H    0.109870
    21  H    0.069243
 Sum of Mulliken charges =  -0.00000

 Dipole moment (field-independent basis, Debye):
    X=             -2.3684    Y=              0.4436    Z=             -0.3557  Tot=              2.4357
 Quadrupole moment (field-independent basis, Debye-Ang):
   XX=            -66.5846   YY=            -61.3152   ZZ=            -71.3634
   XY=              5.8419   XZ=             -2.6533   YZ=              3.3660

  Exact polarizability: 164.297   5.853 110.969   1.105  13.880  80.980
 Approx polarizability: 276.459  11.233 180.319  10.988  37.334 137.328

                      1                      2                      3
                      A                      A                      A
 Frequencies --     75.2252                96.5023               117.5609
 Red. masses --      6.0931                 3.5241                 4.5178
 Frc consts  --      0.0203                 0.0193                 0.0368
 IR Inten    --      2.6095                 7.6602                 2.0902

                      4                      5                      6
                      A                      A                      A
 Frequencies --    177.9488               188.9027               229.4168
 Red. masses --      2.9785                 5.2343                 4.5186
 Frc consts  --      0.0556                 0.1100                 0.1401
 IR Inten    --      7.6282                 1.8371                 2.0277

                      7                      8                      9
                      A                      A                      A
 Frequencies --    235.2131               255.0719               291.2227
 Red. masses --      3.2537                 4.0061                 3.5004
 Frc consts  --      0.1061                 0.1536                 0.1749
 IR Inten    --      1.2086                 3.9214                 2.7709

                     10                     11                     12
                      A                      A                      A
 Frequencies --    369.6208               416.6278               434.2697
 Red. masses --      2.7342                 2.9129                 3.2566
 Frc consts  --      0.2201                 0.2979                 0.3619
 IR Inten    --     12.3135                 5.6308                 6.2199

                     13                     14                     15
                      A                      A                      A
 Frequencies --    497.2900               600.8746               608.5559
 Red. masses --      4.9077                 4.0557                 3.7661
 Frc consts  --      0.7151                 0.8628                 0.8217
 IR Inten    --      1.1002                 0.5886                11.6213

                     16                     17                     18
                      A                      A                      A
 Frequencies --    657.6512               685.4384               721.8105
 Red. masses --      2.4793                 2.7045                 1.8458
 Frc consts  --      0.6318                 0.7486                 0.5666
 IR Inten    --     20.0306                24.6622                16.1455

                     19                     20                     21
                      A                      A                      A
 Frequencies --    728.0752               808.4927               821.3604
 Red. masses --      1.7903                 1.9459                 3.0062
 Frc consts  --      0.5592                 0.7494                 1.1949
 IR Inten    --      8.4174                 6.6433                32.5607

                     22                     23                     24
                      A                      A                      A
 Frequencies --    853.2750               897.8328               924.2931
 Red. masses --      2.2244                 1.9519                 2.0316
 Frc consts  --      0.9542                 0.9271                 1.0226
 IR Inten    --     30.7170                 7.1410                 5.9763

                     25                     26                     27
                      A                      A                      A
 Frequencies --    935.1682               990.2968               998.0100
 Red. masses --      2.6023                 1.2784                 1.3257
 Frc consts  --      1.3409                 0.7387                 0.7780
 IR Inten    --      5.8238                 0.4413                 4.0219

                     28                     29                     30
                      A                      A                      A
 Frequencies --   1024.7589              1035.7687              1065.5628
 Red. masses --      2.2713                 1.9228                 1.3574
 Frc consts  --      1.4053                 1.2153                 0.9081
 IR Inten    --      3.6053                 1.4924                13.0883

                     31                     32                     33
                      A                      A                      A
 Frequencies --   1077.2592              1133.0019              1183.7280
 Red. masses --      2.0598                 4.9015                 2.3843
 Frc consts  --      1.4084                 3.7071                 1.9684
 IR Inten    --      1.6712                45.1350                46.4591

                     34                     35                     36
                      A                      A                      A
 Frequencies --   1212.2473              1257.1667              1259.9065
 Red. masses --      1.4868                 1.1098                 1.1364
 Frc consts  --      1.2873                 1.0334                 1.0629
 IR Inten    --     29.1118                 2.6139                 3.6467

                     37                     38                     39
                      A                      A                      A
 Frequencies --   1322.4146              1396.7026              1415.3895
 Red. masses --      1.3246                 1.6769                 1.3669
 Frc consts  --      1.3648                 1.9274                 1.6134
 IR Inten    --      0.8479                16.6894                 2.3110

                     40                     41                     42
                      A                      A                      A
 Frequencies --   1436.0342              1459.1048              1500.1946
 Red. masses --      1.2489                 1.7583                 1.1562
 Frc consts  --      1.5174                 2.2055                 1.5331
 IR Inten    --      0.6473                 2.0420                10.1146

                     43                     44                     45
                      A                      A                      A
 Frequencies --   1674.0150              1680.7630              1686.3496
 Red. masses --      8.2921                 6.9004                 6.1171
 Frc consts  --     13.6910                11.4852                10.2493
 IR Inten    --     17.8647                59.2344                26.0895

                     46                     47                     48
                      A                      A                      A
 Frequencies --   1708.7031              1732.9506              1787.4499
 Red. masses --      8.7634                 7.2206                10.7509
 Frc consts  --     15.0749                12.7760                20.2378
 IR Inten    --     16.9755                34.8153               213.5402

                     49                     50                     51
                      A                      A                      A
 Frequencies --   2869.1955              3042.1169              3094.8690
 Red. masses --      1.0825                 1.0593                 1.0848
 Frc consts  --      5.2507                 5.7759                 6.1216
 IR Inten    --    120.3467                30.1196                17.7361

                     52                     53                     54
                      A                      A                      A
 Frequencies --   3116.3299              3122.2256              3132.6650
 Red. masses --      1.0809                 1.0831                 1.0858
 Frc consts  --      6.1849                 6.2206                 6.2783
 IR Inten    --      1.9804                 6.1735                15.5386

                     55                     56                     57
                      A                      A                      A
 Frequencies --   3142.0409              3149.0245              3153.6412
 Red. masses --      1.0914                 1.0927                 1.1119
 Frc consts  --      6.3485                 6.3840                 6.5152
 IR Inten    --     32.2651                27.0432                26.4345

 - Thermochemistry -
 -------------------
 Temperature   298.150 Kelvin.  Pressure   1.00000 Atm.
 Atom     1 has atomic number  6 and mass  12.00000

 Molecular mass:   159.06841 amu.
 Principal axes and moments of inertia in atomic units:
                           1         2         3
     Eigenvalues --  1216.640852293.691532825.19548
           X            0.99966   0.02556  -0.00544
           Y           -0.02536   0.99908   0.03466
           Z            0.00632  -0.03451   0.99938
 This molecule is an asymmetric top.
 Rotational symmetry number  1.
 Warning -- assumption of classical behavior for rotation
           may cause significant error
 Rotational temperatures (Kelvin)      0.07119     0.03776     0.03066
 Rotational constants (GHZ):           1.48338     0.78683     0.63880
 Zero-point vibrational energy     427590.7 (Joules/Mol)
                                  102.19664 (Kcal/Mol)
 Warning -- explicit consideration of  15 degrees of freedom as
           vibrations may cause significant error
 Vibrational temperatures:    108.23   138.85   169.14   256.03   271.79
          (Kelvin)            330.08   338.42   366.99   419.00   531.80
                              599.43   624.82   715.49   864.52   875.58
                              946.21   986.19  1038.52  1047.54  1163.24
                             1181.75  1227.67  1291.78  1329.85  1345.50
                             1424.82  1435.91  1474.40  1490.24  1533.11
                             1549.94  1630.14  1703.12  1744.15  1808.78
                             1812.72  1902.66  2009.54  2036.43  2066.13
                             2099.33  2158.45  2408.53  2418.24  2426.28
                             2458.44  2493.33  2571.74  4128.13  4376.93
                             4452.83  4483.70  4492.19  4507.21  4520.70
                             4530.74  4537.39

 Zero-point correction=                           0.162861 (Hartree/Particle)
 Thermal correction to Energy=                    0.173632
 Thermal correction to Enthalpy=                  0.174577
 Thermal correction to Gibbs Free Energy=         0.126545
 Sum of electronic and zero-point Energies=           -516.217297
 Sum of electronic and thermal Energies=              -516.206526
 Sum of electronic and thermal Enthalpies=            -516.205581
 Sum of electronic and thermal Free Energies=         -516.253613

                     E (Thermal)             CV                S
                      KCal/Mol        Cal/Mol-Kelvin    Cal/Mol-Kelvin
 Total                  108.956             40.695            101.092
 Electronic               0.000              0.000              0.000
 Translational            0.889              2.981             41.102
 Rotational               0.889              2.981             30.445
 Vibrational            107.179             34.734             29.545
 Vibration     1          0.599              1.966              4.012
 Vibration     2          0.603              1.952              3.524
 Vibration     3          0.608              1.935              3.140
 Vibration     4          0.628              1.869              2.350
 Vibration     5          0.633              1.855              2.239
 Vibration     6          0.652              1.796              1.884
 Vibration     7          0.655              1.787              1.839
 Vibration     8          0.665              1.754              1.695
 Vibration     9          0.687              1.690              1.467
 Vibration    10          0.742              1.535              1.081
 Vibration    11          0.780              1.434              0.904
 Vibration    12          0.795              1.396              0.845
 Vibration    13          0.853              1.256              0.665
 Vibration    14          0.959              1.030              0.448
 Vibration    15          0.967              1.014              0.435

 Optimization completed.
    -- Stationary point found.
 Normal termination of Gaussian 16 at Tue May 16 18:47:34 2023.
