 Gaussian 16, Revision A.03,
 Gaussian 16:  ES64L-G16RevA.03 25-Dec-2016

 -----------------------------
 # opt freq b3lyp/6-31g(2df,p)
 -----------------------------

 -------------------
 Title Card Required
 -------------------
 Symbolic Z-matrix:
 Charge =  0 Multiplicity = 1

 SCF Done:  E(RB3LYP) =  -735.161614429     A.U. after   14 cycles
 SCF Done:  E(RB3LYP) =  -735.178324610     A.U. after   14 cycles
 SCF Done:  E(RB3LYP) =  -735.182487265     A.U. after   14 cycles
 SCF Done:  E(RB3LYP) =  -735.183986047     A.U. after   13 cycles
 SCF Done:  E(RB3LYP) =  -735.184736608     A.U. after   12 cycles
 SCF Done:  E(RB3LYP) =  -735.185731750     A.U. after   13 cycles
 SCF Done:  E(RB3LYP) =  -735.186266359     A.U. after   12 cycles
 SCF Done:  E(RB3LYP) =  -735.186635741     A.U. after   13 cycles
 SCF Done:  E(RB3LYP) =  -735.187041817     A.U. after   12 cycles
 SCF Done:  E(RB3LYP) =  -735.187187994     A.U. after   12 cycles
 SCF Done:  E(RB3LYP) =  -735.191047917     A.U. after   11 cycles
 SCF Done:  E(RB3LYP) =  -735.191052129     A.U. after   12 cycles
 SCF Done:  E(RB3LYP) =  -735.191059713     A.U. after   10 cycles
 SCF Done:  E(RB3LYP) =  -735.191068087     A.U. after   11 cycles
 SCF Done:  E(RB3LYP) =  -735.191067165     A.U. after   11 cycles
 SCF Done:  E(RB3LYP) =  -735.191068759     A.U. after   10 cycles
 SCF Done:  E(RB3LYP) =  -735.191068840     A.U. after    7 cycles
 SCF Done:  E(RB3LYP) =  -735.191068834     A.U. after    8 cycles
 SCF Done:  E(RB3LYP) =  -735.191068849     A.U. after    7 cycles
 Optimization completed.
    -- Stationary point found.
 Normal termination of Gaussian 16 at Fri May 19 10:32:09 2023.

 ----------------------------------------------------------------------
 #N Geom=AllCheck Guess=TCheck SCRF=Check GenChk RB3LYP/6-31G(2df,p) Fr
 eq
 ----------------------------------------------------------------------

 Structure from the checkpoint file:  "CdNCqCrqCrNC1dNCdNNdCNdC1CN.chk"
 -------------------
 Title Card Required
 -------------------
 Charge =  0 Multiplicity = 1

                         Standard orientation:
 ---------------------------------------------------------------------
 Center     Atomic      Atomic             Coordinates (Angstroms)
 Number     Number       Type             X           Y           Z
 ---------------------------------------------------------------------
      1          6           0        4.296401    0.109127   -0.728364
      2          7           0        3.116725    0.501848   -0.510678
      3          6           0        2.111918   -0.436402    0.014546
      4          6           0        1.991991   -1.706390   -0.842266
      5          6           0        2.435466   -0.765031    1.483644
      6          7           0        0.868179    0.350011   -0.079563
      7          6           0       -0.370805   -0.029405    0.291130
      8          7           0       -0.638140   -1.170297    0.835654
      9          6           0       -1.945316   -1.504294    1.165966
     10          7           0       -2.965958   -1.629167    0.399737
     11          7           0       -2.807410   -1.470901   -0.958576
     12          6           0       -2.577989   -0.312048   -1.435700
     13          7           0       -2.425564    0.894464   -0.722267
     14          6           0       -1.434540    1.043067    0.059687
     15          6           0       -1.247215    2.374193    0.758820
     16          7           0       -0.203970    3.122224    0.035495
     17          1           0        5.027280    0.827668   -1.102077
     18          1           0        4.659763   -0.913816   -0.569545
     19          1           0        2.901367   -2.308824   -0.767363
     20          1           0        1.833158   -1.436889   -1.889655
     21          1           0        1.148638   -2.305840   -0.497118
     22          1           0        3.356369   -1.352723    1.541744
     23          1           0        1.617069   -1.337034    1.922433
     24          1           0        2.576638    0.158977    2.050959
     25          1           0        0.995897    1.329979   -0.314769
     26          1           0       -2.103217   -1.777099    2.209212
     27          1           0       -2.581067   -0.196569   -2.517764
     28          1           0       -0.895843    2.207396    1.782693
     29          1           0       -2.220682    2.878792    0.800664
     30          1           0        0.105710    3.919850    0.580362
     31          1           0       -0.587578    3.481959   -0.833181
 ---------------------------------------------------------------------

 SCF Done:  E(RB3LYP) =  -735.191068849     A.U. after    1 cycles

 The electronic state is 1-A.
 Alpha  occ. eigenvalues --  -14.35023 -14.34593 -14.34387 -14.34194 -14.33987
 Alpha  occ. eigenvalues --  -14.33019 -14.31003 -10.27228 -10.26487 -10.25675
 Alpha  occ. eigenvalues --  -10.23772 -10.23697 -10.23387 -10.23177 -10.17971
 Alpha  occ. eigenvalues --  -10.17770  -1.00479  -0.97446  -0.94059  -0.92972
 Alpha  occ. eigenvalues --   -0.90285  -0.88273  -0.80456  -0.77754  -0.73032
 Alpha  occ. eigenvalues --   -0.69696  -0.67837  -0.65145  -0.61561  -0.60923
 Alpha  occ. eigenvalues --   -0.56222  -0.55218  -0.52357  -0.51519  -0.50297
 Alpha  occ. eigenvalues --   -0.48075  -0.47355  -0.47005  -0.45553  -0.44416
 Alpha  occ. eigenvalues --   -0.44090  -0.42841  -0.40714  -0.40231  -0.39827
 Alpha  occ. eigenvalues --   -0.38558  -0.37729  -0.36809  -0.35012  -0.34420
 Alpha  occ. eigenvalues --   -0.32821  -0.31998  -0.31413  -0.27637  -0.26573
 Alpha  occ. eigenvalues --   -0.25754  -0.24122  -0.22496  -0.21632
 Alpha virt. eigenvalues --   -0.04633  -0.02462   0.01008   0.02215   0.05455
 Alpha virt. eigenvalues --    0.07718   0.08497   0.11318   0.12256   0.13006
 Alpha virt. eigenvalues --    0.13772   0.14351   0.14516   0.15544   0.15673

 Mulliken charges:
               1
     1  C   -0.199275
     2  N   -0.138841
     3  C    0.284954
     4  C   -0.416909
     5  C   -0.403510
     6  N   -0.360733
     7  C    0.334232
     8  N   -0.331807
     9  C    0.050320
    10  N   -0.199109
    11  N   -0.173372
    12  C    0.059538
    13  N   -0.248789
    14  C    0.241795
    15  C   -0.244690
    16  N   -0.508555
    17  H    0.126251
    18  H    0.111622
    19  H    0.110334
    20  H    0.122407
    21  H    0.162556
    22  H    0.110272
    23  H    0.155546
    24  H    0.116862
    25  H    0.266280
    26  H    0.110541
    27  H    0.121966
    28  H    0.126368
    29  H    0.121999
    30  H    0.244580
    31  H    0.247164
 Sum of Mulliken charges =  -0.00000

 Dipole moment (field-independent basis, Debye):
    X=              4.9679    Y=              4.3155    Z=              0.6152  Tot=              6.6093
 Quadrupole moment (field-independent basis, Debye-Ang):
   XX=            -99.1245   YY=            -88.4912   ZZ=            -89.6439
   XY=            -12.2459   XZ=             -2.3137   YZ=              0.7042

  Exact polarizability: 173.668  11.725 137.186   1.146  -6.015 120.529
 Approx polarizability: 248.726  25.937 219.184   7.212 -18.744 200.946

                      1                      2                      3
                      A                      A                      A
 Frequencies --     40.4412                53.4530                68.0786
 Red. masses --      3.3891                 4.1812                 3.1445
 Frc consts  --      0.0033                 0.0070                 0.0086
 IR Inten    --      0.5958                 0.5750                 6.1300

                      4                      5                      6
                      A                      A                      A
 Frequencies --     85.9398               108.6529               127.2066
 Red. masses --      3.4651                 4.4583                 4.0516
 Frc consts  --      0.0151                 0.0310                 0.0386
 IR Inten    --      0.7701                 2.6701                 5.3035

                      7                      8                      9
                      A                      A                      A
 Frequencies --    149.1970               211.2752               234.1680
 Red. masses --      4.8251                 3.9963                 3.4812
 Frc consts  --      0.0633                 0.1051                 0.1125
 IR Inten    --      0.2360                 4.9130                 2.6423

                     10                     11                     12
                      A                      A                      A
 Frequencies --    240.6228               245.6643               260.2733
 Red. masses --      1.5166                 2.7203                 2.0084
 Frc consts  --      0.0517                 0.0967                 0.0802
 IR Inten    --      0.7784                 4.1114                 4.9398

                     13                     14                     15
                      A                      A                      A
 Frequencies --    275.1993               286.0086               322.0931
 Red. masses --      1.4233                 1.9282                 2.2671
 Frc consts  --      0.0635                 0.0929                 0.1386
 IR Inten    --      1.8617                 1.8859                 2.4175

                     16                     17                     18
                      A                      A                      A
 Frequencies --    326.5225               355.2824               368.6302
 Red. masses --      1.8264                 2.3167                 3.4199
 Frc consts  --      0.1147                 0.1723                 0.2738
 IR Inten    --      8.4421                14.7574                 2.4202

                     19                     20                     21
                      A                      A                      A
 Frequencies --    394.1812               405.6523               458.5493
 Red. masses --      3.6496                 3.8355                 3.3067
 Frc consts  --      0.3341                 0.3719                 0.4097
 IR Inten    --      3.9455                13.0329                 8.5378

                     22                     23                     24
                      A                      A                      A
 Frequencies --    487.7067               515.2377               579.5224
 Red. masses --      3.7347                 4.6290                 3.0225
 Frc consts  --      0.5234                 0.7240                 0.5981
 IR Inten    --     34.2344                 7.5843                 7.0362

                     25                     26                     27
                      A                      A                      A
 Frequencies --    635.2675               671.4822               710.6915
 Red. masses --      4.7394                 1.5441                 2.5744
 Frc consts  --      1.1269                 0.4102                 0.7661
 IR Inten    --      5.2890                34.7359                19.0777

                     28                     29                     30
                      A                      A                      A
 Frequencies --    735.2775               749.0170               761.8713
 Red. masses --      3.9494                 1.5441                 3.6970
 Frc consts  --      1.2580                 0.5104                 1.2644
 IR Inten    --      2.7249                 1.2559                 2.4444

                     31                     32                     33
                      A                      A                      A
 Frequencies --    769.3808               826.5328               870.7301
 Red. masses --      4.8351                 4.6335                 1.6568
 Frc consts  --      1.6863                 1.8650                 0.7401
 IR Inten    --      1.6923                 7.6380                94.1272

                     34                     35                     36
                      A                      A                      A
 Frequencies --    872.1916               899.1930               910.1371
 Red. masses --      2.5285                 4.3287                 1.9146
 Frc consts  --      1.1333                 2.0621                 0.9344
 IR Inten    --      1.8815                46.0935                10.2940

                     37                     38                     39
                      A                      A                      A
 Frequencies --    929.9366               935.7468               949.9025
 Red. masses --      3.6837                 1.4932                 1.6295
 Frc consts  --      1.8769                 0.7704                 0.8663
 IR Inten    --     67.1232                 0.3071                10.7100

                     40                     41                     42
                      A                      A                      A
 Frequencies --    959.2589               993.6264              1026.6291
 Red. masses --      1.9768                 2.3133                 1.3043
 Frc consts  --      1.0717                 1.3456                 0.8100
 IR Inten    --     11.0941                 2.5365                 1.1102

                     43                     44                     45
                      A                      A                      A
 Frequencies --   1043.1824              1070.0076              1071.3886
 Red. masses --      3.1347                 2.4557                 1.3875
 Frc consts  --      2.0099                 1.6566                 0.9384
 IR Inten    --      7.2013                12.6691                18.5070

                     46                     47                     48
                      A                      A                      A
 Frequencies --   1107.8722              1169.1840              1200.5148
 Red. masses --      3.1731                 1.6973                 1.8158
 Frc consts  --      2.2946                 1.3670                 1.5419
 IR Inten    --     95.2300                15.4321                45.6005

                     49                     50                     51
                      A                      A                      A
 Frequencies --   1205.1296              1208.8588              1236.2223
 Red. masses --      2.7855                 2.3647                 3.2980
 Frc consts  --      2.3836                 2.0360                 2.9696
 IR Inten    --     11.3821                64.9247                14.0046

                     52                     53                     54
                      A                      A                      A
 Frequencies --   1254.9198              1310.2599              1347.0794
 Red. masses --      2.5199                 1.3264                 1.9603
 Frc consts  --      2.3381                 1.3417                 2.0959
 IR Inten    --     88.9187                 5.6992                 8.7744

                     55                     56                     57
                      A                      A                      A
 Frequencies --   1360.9624              1387.2905              1395.0760
 Red. masses --      1.1775                 1.2306                 1.2396
 Frc consts  --      1.2850                 1.3954                 1.4214
 IR Inten    --      1.5826                11.5531                32.0473

                     58                     59                     60
                      A                      A                      A
 Frequencies --   1406.1054              1407.4393              1473.0264
 Red. masses --      1.3208                 1.3160                 1.0449
 Frc consts  --      1.5386                 1.5359                 1.3358
 IR Inten    --     14.5924                 7.8747                 0.0398

                     61                     62                     63
                      A                      A                      A
 Frequencies --   1487.8989              1492.6052              1495.3138
 Red. masses --      1.0876                 1.0856                 1.0611
 Frc consts  --      1.4187                 1.4250                 1.3979
 IR Inten    --     32.0738                 2.8484                 0.5350

                     64                     65                     66
                      A                      A                      A
 Frequencies --   1502.9990              1516.1832              1551.4254
 Red. masses --      1.0970                 1.0784                 1.9102
 Frc consts  --      1.4601                 1.4606                 2.7089
 IR Inten    --      1.4390                13.7124               334.8331

                     67                     68                     69
                      A                      A                      A
 Frequencies --   1629.2036              1650.2078              1660.5115
 Red. masses --      9.8137                 1.1118                 8.7666
 Frc consts  --     15.3474                 1.7839                14.2418
 IR Inten    --    131.5791                29.9661               131.7980

                     70                     71                     72
                      A                      A                      A
 Frequencies --   1681.0972              1736.6219              1753.5592
 Red. masses --      9.7695                10.0473                 6.7641
 Frc consts  --     16.2671                17.8529                12.2547
 IR Inten    --    295.8152               108.4710                15.4789

                     73                     74                     75
                      A                      A                      A
 Frequencies --   3020.7114              3025.0495              3045.4113
 Red. masses --      1.0607                 1.0624                 1.0354
 Frc consts  --      5.7026                 5.7279                 5.6579
 IR Inten    --     33.5752                27.9205                19.1822

                     76                     77                     78
                      A                      A                      A
 Frequencies --   3052.0460              3081.0867              3117.3338
 Red. masses --      1.0361                 1.1026                 1.1020
 Frc consts  --      5.6866                 6.1668                 6.3096
 IR Inten    --     23.0973                14.3041                15.3171

                     79                     80                     81
                      A                      A                      A
 Frequencies --   3123.8627              3131.0621              3134.0186
 Red. masses --      1.1019                 1.0873                 1.1074
 Frc consts  --      6.3356                 6.2803                 6.4085
 IR Inten    --     27.8831                35.6401                30.6911

                     82                     83                     84
                      A                      A                      A
 Frequencies --   3149.8695              3152.4492              3152.7330
 Red. masses --      1.1012                 1.0883                 1.1009
 Frc consts  --      6.4371                 6.3724                 6.4470
 IR Inten    --      0.7983                14.8538                 4.6554

                     85                     86                     87
                      A                      A                      A
 Frequencies --   3500.4916              3507.2700              3585.9064
 Red. masses --      1.0580                 1.0696                 1.0937
 Frc consts  --      7.6379                 7.7521                 8.2861
 IR Inten    --     77.0471               129.0604                 4.7327

 - Thermochemistry -
 -------------------
 Temperature   298.150 Kelvin.  Pressure   1.00000 Atm.
 Atom     1 has atomic number  6 and mass  12.00000

 Molecular mass:   221.13889 amu.
 Principal axes and moments of inertia in atomic units:
                           1         2         3
     Eigenvalues --  2196.533164609.630055671.61655
           X            0.99945  -0.03318  -0.00226
           Y            0.03320   0.99941   0.00920
           Z            0.00195  -0.00927   0.99996
 This molecule is an asymmetric top.
 Rotational symmetry number  1.
 Warning -- assumption of classical behavior for rotation
           may cause significant error
 Rotational temperatures (Kelvin)      0.03943     0.01879     0.01527
 Rotational constants (GHZ):           0.82163     0.39152     0.31821
 Zero-point vibrational energy     666307.3 (Joules/Mol)
                                  159.25126 (Kcal/Mol)
 Warning -- explicit consideration of  24 degrees of freedom as
           vibrations may cause significant error
 Vibrational temperatures:     58.19    76.91    97.95   123.65   156.33
          (Kelvin)            183.02   214.66   303.98   336.92   346.20
                              353.46   374.48   395.95   411.50   463.42
                              469.79   511.17   530.38   567.14   583.64
                              659.75   701.70   741.31   833.80   914.01
                              966.11  1022.53  1057.90  1077.67  1096.16
                             1106.97  1189.20  1252.79  1254.89  1293.74
                             1309.48  1337.97  1346.33  1366.70  1380.16
                             1429.61  1477.09  1500.91  1539.50  1541.49
                             1593.98  1682.20  1727.27  1733.91  1739.28
                             1778.65  1805.55  1885.17  1938.15  1958.12
                             1996.00  2007.20  2023.07  2024.99  2119.36
                             2140.75  2147.53  2151.42  2162.48  2181.45
                             2232.16  2344.06  2374.28  2389.11  2418.72
                             2498.61  2522.98  4346.13  4352.37  4381.67
                             4391.21  4433.00  4485.15  4494.54  4504.90
                             4509.15  4531.96  4535.67  4536.08  5036.43
                             5046.18  5159.32

 Zero-point correction=                           0.253783 (Hartree/Particle)
 Thermal correction to Energy=                    0.269895
 Thermal correction to Enthalpy=                  0.270839
 Thermal correction to Gibbs Free Energy=         0.210486
 Sum of electronic and zero-point Energies=           -734.937286
 Sum of electronic and thermal Energies=              -734.921174
 Sum of electronic and thermal Enthalpies=            -734.920230
 Sum of electronic and thermal Free Energies=         -734.980583

                     E (Thermal)             CV                S
                      KCal/Mol        Cal/Mol-Kelvin    Cal/Mol-Kelvin
 Total                  169.362             60.879            127.024
 Electronic               0.000              0.000              0.000
 Translational            0.889              2.981             42.084
 Rotational               0.889              2.981             32.418
 Vibrational            167.584             54.917             52.522
 Vibration     1          0.594              1.981              5.237
 Vibration     2          0.596              1.976              4.685
 Vibration     3          0.598              1.969              4.208
 Vibration     4          0.601              1.959              3.750
 Vibration     5          0.606              1.942              3.293
 Vibration     6          0.611              1.926              2.988
 Vibration     7          0.618              1.904              2.682
 Vibration     8          0.643              1.824              2.033
 Vibration     9          0.654              1.789              1.847
 Vibration    10          0.658              1.778              1.798
 Vibration    11          0.660              1.770              1.761
 Vibration    12          0.668              1.745              1.660
 Vibration    13          0.677              1.719              1.563
 Vibration    14          0.684              1.700              1.497
 Vibration    15          0.707              1.631              1.299
 Vibration    16          0.710              1.622              1.277
 Vibration    17          0.731              1.564              1.143
 Vibration    18          0.741              1.537              1.085
 Vibration    19          0.761              1.483              0.984
 Vibration    20          0.771              1.458              0.942
 Vibration    21          0.817              1.342              0.770
 Vibration    22          0.844              1.277              0.690
 Vibration    23          0.870              1.216              0.621
 Vibration    24          0.936              1.076              0.486

 Optimization completed.
    -- Stationary point found.
 Normal termination of Gaussian 16 at Fri May 19 13:26:30 2023.
