 Gaussian 16, Revision A.03,
 Gaussian 16:  ES64L-G16RevA.03 25-Dec-2016

 -----------------------------
 # opt freq b3lyp/6-31g(2df,p)
 -----------------------------

 -------------------
 Title Card Required
 -------------------
 Symbolic Z-matrix:
 Charge =  0 Multiplicity = 1

 SCF Done:  E(RB3LYP) =  -947.685767304     A.U. after   22 cycles
 SCF Done:  E(RB3LYP) =  -947.707395066     A.U. after   15 cycles
 SCF Done:  E(RB3LYP) =  -947.709957925     A.U. after   13 cycles
 SCF Done:  E(RB3LYP) =  -947.710218978     A.U. after   12 cycles
 SCF Done:  E(RB3LYP) =  -947.710347151     A.U. after   11 cycles
 SCF Done:  E(RB3LYP) =  -947.710361151     A.U. after    9 cycles
 SCF Done:  E(RB3LYP) =  -947.710364533     A.U. after    9 cycles
 SCF Done:  E(RB3LYP) =  -947.710364919     A.U. after    8 cycles
 Optimization completed.
    -- Stationary point found.
 Normal termination of Gaussian 16 at Thu May 18 07:51:37 2023.

 ----------------------------------------------------------------------
 #N Geom=AllCheck Guess=TCheck SCRF=Check GenChk RB3LYP/6-31G(2df,p) Fr
 eq
 ----------------------------------------------------------------------

 Structure from the checkpoint file:  "CdNCCdCqCrSC1dCqNdOrNdC1.chk"
 -------------------
 Title Card Required
 -------------------
 Charge =  0 Multiplicity = 1

                         Standard orientation:
 ---------------------------------------------------------------------
 Center     Atomic      Atomic             Coordinates (Angstroms)
 Number     Number       Type             X           Y           Z
 ---------------------------------------------------------------------
      1          6           0        5.693346   -0.436279   -0.000028
      2          7           0        4.477548   -0.777889   -0.000010
      3          6           0        3.468896    0.284607    0.000029
      4          6           0        2.086505   -0.318112   -0.000002
      5          6           0        0.929840    0.355883    0.000015
      6          6           0        0.792413    1.848302    0.000070
      7         16           0       -0.516023   -0.698534   -0.000046
      8          6           0       -1.868464    0.304647   -0.000036
      9          6           0       -3.208567   -0.017907   -0.000016
     10          7           0       -3.911462   -1.164394   -0.000003
     11          8           0       -3.155423   -2.168980    0.000089
     12          7           0       -3.643080    1.440180   -0.000032
     13          6           0       -2.406011    1.765090   -0.000019
     14          1           0        6.460571   -1.211010   -0.000035
     15          1           0        6.047054    0.605100   -0.000008
     16          1           0        3.604337    0.930266   -0.880029
     17          1           0        3.604329    0.930188    0.880144
     18          1           0        2.081420   -1.405455   -0.000044
     19          1           0        1.774104    2.326031    0.000091
     20          1           0        0.249055    2.199452    0.884187
     21          1           0        0.249059    2.199519   -0.884024
     22          1           0       -1.958984    2.751624   -0.000015
 ---------------------------------------------------------------------

 SCF Done:  E(RB3LYP) =  -947.710364919     A.U. after    1 cycles

 The electronic state is 1-A.
 Alpha  occ. eigenvalues --  -88.94595 -19.13945 -14.39559 -14.36134 -14.35290
 Alpha  occ. eigenvalues --  -10.27034 -10.26765 -10.25150 -10.24533 -10.24444
 Alpha  occ. eigenvalues --  -10.23876 -10.22508 -10.22157  -8.00554  -5.96954
 Alpha  occ. eigenvalues --   -5.96552  -5.96374  -1.08681  -0.99377  -0.94417
 Alpha  occ. eigenvalues --   -0.87346  -0.80925  -0.77429  -0.75734  -0.71545
 Alpha  occ. eigenvalues --   -0.67096  -0.62871  -0.60710  -0.56355  -0.52717
 Alpha  occ. eigenvalues --   -0.49996  -0.48951  -0.48736  -0.48003  -0.46615
 Alpha  occ. eigenvalues --   -0.45795  -0.44455  -0.44287  -0.42089  -0.41256
 Alpha  occ. eigenvalues --   -0.40052  -0.38237  -0.37072  -0.35343  -0.35295
 Alpha  occ. eigenvalues --   -0.32999  -0.29251  -0.27647  -0.27345  -0.21248
 Alpha  occ. eigenvalues --   -0.19723
 Alpha virt. eigenvalues --   -0.11913  -0.04079  -0.03513  -0.01102   0.00704
 Alpha virt. eigenvalues --    0.05389   0.07465   0.08887   0.08891   0.10223
 Alpha virt. eigenvalues --    0.10351   0.11500   0.13144   0.13890   0.14440

 Mulliken charges:
               1
     1  C   -0.186562
     2  N   -0.107900
     3  C   -0.215706
     4  C   -0.124822
     5  C    0.201402
     6  C   -0.491022
     7  S    0.045801
     8  C    0.034616
     9  C    0.325946
    10  N   -0.118555
    11  O   -0.327056
    12  N   -0.226927
    13  C   -0.040052
    14  H    0.132187
    15  H    0.102689
    16  H    0.134267
    17  H    0.134269
    18  H    0.140679
    19  H    0.138274
    20  H    0.149201
    21  H    0.149200
    22  H    0.150072
 Sum of Mulliken charges =  -0.00000

 Dipole moment (field-independent basis, Debye):
    X=              8.4503    Y=              5.2580    Z=             -0.0000  Tot=              9.9526
 Quadrupole moment (field-independent basis, Debye-Ang):
   XX=            -92.5470   YY=            -84.9905   ZZ=            -81.4622
   XY=             -2.2274   XZ=              0.0003   YZ=              0.0004

  Exact polarizability: 252.431   4.611 129.818   0.000  -0.001  65.640
 Approx polarizability: 414.730  25.523 243.938  -0.003  -0.003 111.674

 ******    2 imaginary frequencies (negative Signs) ******

                      1                      2                      3
                      A                      A                      A
 Frequencies --   -118.1427               -26.6019                15.9282
 Red. masses --      2.7650                 2.6623                 4.2102
 Frc consts  --      0.0227                 0.0011                 0.0006
 IR Inten    --      5.4496                 3.4695                 1.8064

                      4                      5                      6
                      A                      A                      A
 Frequencies --     31.5513                67.2035               117.2317
 Red. masses --      6.3106                 6.8322                 8.3273
 Frc consts  --      0.0037                 0.0182                 0.0674
 IR Inten    --      0.2691                 1.0719                 7.2558

                      7                      8                      9
                      A                      A                      A
 Frequencies --    175.1311               177.9319               200.5098
 Red. masses --      3.1719                 5.6418                 4.1243
 Frc consts  --      0.0573                 0.1052                 0.0977
 IR Inten    --      4.7171                 1.9405                 0.0246

                     10                     11                     12
                      A                      A                      A
 Frequencies --    211.2732               250.5590               253.5763
 Red. masses --      7.1436                 1.1768                 3.8295
 Frc consts  --      0.1879                 0.0435                 0.1451
 IR Inten    --      0.4895                 0.0957                 4.4010

                     13                     14                     15
                      A                      A                      A
 Frequencies --    317.3919               347.6658               349.9158
 Red. masses --      3.2577                 7.0061                 6.3904
 Frc consts  --      0.1934                 0.4989                 0.4610
 IR Inten    --      4.6869                 2.6967                 0.4663

                     16                     17                     18
                      A                      A                      A
 Frequencies --    442.5885               453.4139               479.3952
 Red. masses --      8.1799                 2.7266                 6.8632
 Frc consts  --      0.9441                 0.3303                 0.9293
 IR Inten    --      7.4143                 4.7253                 4.1690

                     19                     20                     21
                      A                      A                      A
 Frequencies --    514.5630               591.4301               632.3644
 Red. masses --      3.8584                11.1570                 1.1620
 Frc consts  --      0.6019                 2.2994                 0.2738
 IR Inten    --      0.7067                44.5400                 3.3644

                     22                     23                     24
                      A                      A                      A
 Frequencies --    667.2387               712.7966               808.4110
 Red. masses --      5.5316                 4.0580                 6.2553
 Frc consts  --      1.4510                 1.2148                 2.4086
 IR Inten    --      4.9850                 2.4597                15.8145

                     25                     26                     27
                      A                      A                      A
 Frequencies --    819.1872               839.5511               946.5938
 Red. masses --      1.3639                 1.2730                 5.1363
 Frc consts  --      0.5393                 0.5286                 2.7116
 IR Inten    --      5.4990                 5.1796                30.3838

                     28                     29                     30
                      A                      A                      A
 Frequencies --    958.7045               981.0002              1006.5780
 Red. masses --      4.8535                 2.8813                 1.8059
 Frc consts  --      2.6283                 1.6337                 1.0781
 IR Inten    --     30.7249                20.2504                 8.9783

                     31                     32                     33
                      A                      A                      A
 Frequencies --   1065.5991              1072.7718              1088.2982
 Red. masses --      1.4057                 1.3711                 2.4727
 Frc consts  --      0.9404                 0.9297                 1.7255
 IR Inten    --      0.1580                11.0924                27.8772

                     34                     35                     36
                      A                      A                      A
 Frequencies --   1123.2113              1140.4061              1224.9021
 Red. masses --      3.9082                 3.0945                 1.5853
 Frc consts  --      2.9050                 2.3712                 1.4014
 IR Inten    --     21.2168                39.6625                11.3868

                     37                     38                     39
                      A                      A                      A
 Frequencies --   1225.8794              1240.2818              1250.2035
 Red. masses --      1.2943                 1.0725                11.1934
 Frc consts  --      1.1460                 0.9720                10.3080
 IR Inten    --      1.8393                 0.0274                 6.8352

                     40                     41                     42
                      A                      A                      A
 Frequencies --   1318.0850              1331.9768              1380.2652
 Red. masses --      1.3729                 8.5582                 1.4483
 Frc consts  --      1.4054                 8.9460                 1.6257
 IR Inten    --    101.1673               600.0511                73.6960

                     43                     44                     45
                      A                      A                      A
 Frequencies --   1415.8543              1443.1076              1481.5897
 Red. masses --      1.2677                 1.0740                 1.0425
 Frc consts  --      1.4972                 1.3178                 1.3482
 IR Inten    --      4.0211                 3.7420                 8.4864

                     46                     47                     48
                      A                      A                      A
 Frequencies --   1490.0110              1499.7927              1548.6402
 Red. masses --      1.0616                 1.1456                12.0670
 Frc consts  --      1.3886                 1.5183                17.0510
 IR Inten    --      3.9172                14.6672               146.7378

                     49                     50                     51
                      A                      A                      A
 Frequencies --   1629.1842              1688.5447              1752.6444
 Red. masses --      8.9692                 7.6093                 6.5866
 Frc consts  --     14.0263                12.7827                11.9206
 IR Inten    --     61.3234                 0.4498                48.7257

                     52                     53                     54
                      A                      A                      A
 Frequencies --   2983.8172              3001.4036              3018.4130
 Red. masses --      1.0575                 1.0662                 1.1030
 Frc consts  --      5.5470                 5.6588                 5.9206
 IR Inten    --      6.1327                65.7331                13.4305

                     55                     56                     57
                      A                      A                      A
 Frequencies --   3033.2055              3090.2024              3128.8868
 Red. masses --      1.0377                 1.1000                 1.0983
 Frc consts  --      5.6249                 6.1887                 6.3348
 IR Inten    --     12.5868                 7.1020                16.4600

                     58                     59                     60
                      A                      A                      A
 Frequencies --   3141.5511              3164.7427              3213.2693
 Red. masses --      1.1038                 1.0891                 1.0975
 Frc consts  --      6.4186                 6.4269                 6.6765
 IR Inten    --     26.7745                 4.4753                 5.9213

 - Thermochemistry -
 -------------------
 Temperature   298.150 Kelvin.  Pressure   1.00000 Atm.
 Atom     1 has atomic number  6 and mass  12.00000

 Molecular mass:   195.04663 amu.
 Principal axes and moments of inertia in atomic units:
                           1         2         3
     Eigenvalues --   942.608726443.378297363.58398
           X            1.00000   0.00035   0.00000
           Y           -0.00035   1.00000   0.00000
           Z           -0.00000  -0.00000   1.00000
 This molecule is an asymmetric top.
 Rotational symmetry number  1.
 Warning -- assumption of classical behavior for rotation
           may cause significant error
 Rotational temperatures (Kelvin)      0.09189     0.01344     0.01176
 Rotational constants (GHZ):           1.91462     0.28009     0.24509
    2 imaginary frequencies ignored.
 Zero-point vibrational energy     416039.8 (Joules/Mol)
                                   99.43590 (Kcal/Mol)
 Warning -- explicit consideration of  18 degrees of freedom as
           vibrations may cause significant error
 Vibrational temperatures:     22.92    45.40    96.69   168.67   251.97
          (Kelvin)            256.00   288.49   303.97   360.50   364.84
                              456.66   500.21   503.45   636.79   652.36
                              689.74   740.34   850.94   909.83   960.01
                             1025.56  1163.12  1178.63  1207.93  1361.94
                             1379.36  1411.44  1448.24  1533.16  1543.48
                             1565.82  1616.05  1640.79  1762.36  1763.77
                             1784.49  1798.76  1896.43  1916.42  1985.89
                             2037.10  2076.31  2131.68  2143.79  2157.87
                             2228.15  2344.03  2429.44  2521.66  4293.05
                             4318.35  4342.82  4364.11  4446.11  4501.77
                             4519.99  4553.36  4623.18

 Zero-point correction=                           0.158461 (Hartree/Particle)
 Thermal correction to Energy=                    0.171129
 Thermal correction to Enthalpy=                  0.172073
 Thermal correction to Gibbs Free Energy=         0.116903
 Sum of electronic and zero-point Energies=           -947.551904
 Sum of electronic and thermal Energies=              -947.539236
 Sum of electronic and thermal Enthalpies=            -947.538292
 Sum of electronic and thermal Free Energies=         -947.593462

                     E (Thermal)             CV                S
                      KCal/Mol        Cal/Mol-Kelvin    Cal/Mol-Kelvin
 Total                  107.385             45.124            116.114
 Electronic               0.000              0.000              0.000
 Translational            0.889              2.981             41.709
 Rotational               0.889              2.981             32.170
 Vibrational            105.607             39.162             42.235
 Vibration     1          0.593              1.986              7.086
 Vibration     2          0.594              1.983              5.729
 Vibration     3          0.598              1.970              4.234
 Vibration     4          0.608              1.935              3.146
 Vibration     5          0.627              1.873              2.380
 Vibration     6          0.628              1.869              2.350
 Vibration     7          0.638              1.839              2.128
 Vibration     8          0.643              1.824              2.033
 Vibration     9          0.663              1.762              1.727
 Vibration    10          0.665              1.757              1.706
 Vibration    11          0.704              1.640              1.324
 Vibration    12          0.725              1.580              1.177
 Vibration    13          0.727              1.575              1.167
 Vibration    14          0.802              1.377              0.819
 Vibration    15          0.812              1.353              0.786
 Vibration    16          0.836              1.296              0.712
 Vibration    17          0.870              1.218              0.623
 Vibration    18          0.949              1.050              0.465

 Optimization completed.
    -- Stationary point found.
 Normal termination of Gaussian 16 at Thu May 18 08:36:41 2023.
