 Gaussian 16, Revision A.03,
 Gaussian 16:  ES64L-G16RevA.03 25-Dec-2016

 -----------------------------
 # opt freq b3lyp/6-31g(2df,p)
 -----------------------------

 -------------------
 Title Card Required
 -------------------
 Symbolic Z-matrix:
 Charge =  0 Multiplicity = 1

 SCF Done:  E(RB3LYP) =  -932.533171733     A.U. after   21 cycles
 SCF Done:  E(RB3LYP) =  -932.590534959     A.U. after   18 cycles
 SCF Done:  E(RB3LYP) =  -932.639938357     A.U. after   16 cycles
 SCF Done:  E(RB3LYP) =  -932.671314200     A.U. after   15 cycles
 SCF Done:  E(RB3LYP) =  -932.692617201     A.U. after   15 cycles
 SCF Done:  E(RB3LYP) =  -932.700324476     A.U. after   15 cycles
 SCF Done:  E(RB3LYP) =  -932.703410833     A.U. after   15 cycles
 SCF Done:  E(RB3LYP) =  -932.705076029     A.U. after   14 cycles
 SCF Done:  E(RB3LYP) =  -932.706177405     A.U. after   13 cycles
 SCF Done:  E(RB3LYP) =  -932.706749905     A.U. after   14 cycles
 SCF Done:  E(RB3LYP) =  -932.707178104     A.U. after   13 cycles
 SCF Done:  E(RB3LYP) =  -932.707372919     A.U. after   12 cycles
 SCF Done:  E(RB3LYP) =  -932.707443972     A.U. after   11 cycles
 SCF Done:  E(RB3LYP) =  -932.707469610     A.U. after   10 cycles
 SCF Done:  E(RB3LYP) =  -932.707474650     A.U. after   10 cycles
 SCF Done:  E(RB3LYP) =  -932.707477518     A.U. after    8 cycles
 SCF Done:  E(RB3LYP) =  -932.707479407     A.U. after    9 cycles
 SCF Done:  E(RB3LYP) =  -932.707479929     A.U. after    8 cycles
 SCF Done:  E(RB3LYP) =  -932.707480005     A.U. after    7 cycles
 Optimization completed.
    -- Stationary point found.
 Normal termination of Gaussian 16 at Mon May 15 19:44:10 2023.

 ----------------------------------------------------------------------
 #N Geom=AllCheck Guess=TCheck SCRF=Check GenChk RB3LYP/6-31G(2df,p) Fr
 eq
 ----------------------------------------------------------------------

 Structure from the checkpoint file:  "CdNc1cc2ccc1NdCCdC2SC.chk"
 -------------------
 Title Card Required
 -------------------
 Charge =  0 Multiplicity = 1

                         Standard orientation:
 ---------------------------------------------------------------------
 Center     Atomic      Atomic             Coordinates (Angstroms)
 Number     Number       Type             X           Y           Z
 ---------------------------------------------------------------------
      1          6           0       -2.945637    2.287595   -0.467209
      2          7           0       -2.943857    1.025201   -0.328802
      3          6           0       -1.777324    0.381343    0.064597
      4          6           0       -0.980510    0.612644    1.133953
      5          6           0        0.065644   -0.481961    1.249283
      6          6           0       -0.533711   -1.865515    1.344148
      7          6           0       -1.357900   -2.097381    0.332409
      8          6           0       -1.278332   -0.904189   -0.584367
      9          7           0       -0.420247   -0.842178   -1.537583
     10          6           0        0.784327   -1.507279   -1.498992
     11          6           0        1.657850   -1.321676   -0.451775
     12          6           0        1.266247   -0.375914    0.596396
     13         16           0        2.159891    1.149017    0.757994
     14          6           0        2.741288    1.524681   -0.933296
     15          1           0       -3.877405    2.790716   -0.723888
     16          1           0       -2.048245    2.905002   -0.344042
     17          1           0       -1.146316    1.410189    1.848690
     18          1           0       -0.261000   -2.557314    2.135332
     19          1           0       -1.927663   -2.987172    0.094029
     20          1           0        1.119535   -1.994197   -2.411289
     21          1           0        2.691992   -1.617673   -0.597976
     22          1           0        3.189894    2.519123   -0.877336
     23          1           0        1.903292    1.540948   -1.630852
     24          1           0        3.494725    0.810873   -1.266760
 ---------------------------------------------------------------------

 SCF Done:  E(RB3LYP) =  -932.707480005     A.U. after    1 cycles

 The electronic state is 1-A.
 Alpha  occ. eigenvalues --  -88.87482 -14.34718 -14.33667 -10.25818 -10.23624
 Alpha  occ. eigenvalues --  -10.23006 -10.22611 -10.21879 -10.20646 -10.19602
 Alpha  occ. eigenvalues --  -10.19552 -10.19377 -10.18938 -10.18588  -7.93697
 Alpha  occ. eigenvalues --   -5.90174  -5.89793  -5.89296  -0.96026  -0.93577
 Alpha  occ. eigenvalues --   -0.84872  -0.81724  -0.76578  -0.75475  -0.70824
 Alpha  occ. eigenvalues --   -0.68139  -0.64140  -0.63152  -0.57394  -0.56534
 Alpha  occ. eigenvalues --   -0.54187  -0.51515  -0.49281  -0.47597  -0.46405
 Alpha  occ. eigenvalues --   -0.45494  -0.44754  -0.43615  -0.42320  -0.42170
 Alpha  occ. eigenvalues --   -0.40495  -0.38797  -0.37212  -0.35752  -0.33015
 Alpha  occ. eigenvalues --   -0.32068  -0.30426  -0.28804  -0.27213  -0.25875
 Alpha  occ. eigenvalues --   -0.22536  -0.21352  -0.19985
 Alpha virt. eigenvalues --   -0.04936  -0.04167  -0.03797   0.01568   0.03621
 Alpha virt. eigenvalues --    0.04912   0.05606   0.09480   0.11252   0.12021
 Alpha virt. eigenvalues --    0.13214   0.13584   0.14884   0.15350   0.15781

 Mulliken charges:
               1
     1  C   -0.208535
     2  N   -0.190691
     3  C    0.318222
     4  C   -0.218912
     5  C   -0.044146
     6  C   -0.113248
     7  C   -0.145459
     8  C    0.083873
     9  N   -0.161556
    10  C   -0.013144
    11  C   -0.224469
    12  C    0.194738
    13  S   -0.144661
    14  C   -0.384032
    15  H    0.127700
    16  H    0.121005
    17  H    0.113336
    18  H    0.109083
    19  H    0.116531
    20  H    0.115707
    21  H    0.098210
    22  H    0.144803
    23  H    0.162499
    24  H    0.143147
 Sum of Mulliken charges =  -0.00000

 Dipole moment (field-independent basis, Debye):
    X=              0.1982    Y=              0.2282    Z=             -0.9236  Tot=              0.9718
 Quadrupole moment (field-independent basis, Debye-Ang):
   XX=            -87.0973   YY=            -77.6269   ZZ=            -87.7695
   XY=             -2.8217   XZ=             -5.4333   YZ=             -1.3841

  Exact polarizability: 171.744   0.160 143.817   1.948   0.706 120.290
 Approx polarizability: 288.609  10.122 224.029  20.259   5.442 249.457

                      1                      2                      3
                      A                      A                      A
 Frequencies --     47.6987                73.7327                85.5477
 Red. masses --      3.5867                 3.6041                 3.9247
 Frc consts  --      0.0048                 0.0115                 0.0169
 IR Inten    --      0.8803                 4.0769                 4.3832

                      4                      5                      6
                      A                      A                      A
 Frequencies --    116.9046               134.8475               164.8135
 Red. masses --      4.3841                 1.1169                 4.7263
 Frc consts  --      0.0353                 0.0120                 0.0756
 IR Inten    --      1.8348                 1.1631                12.6536

                      7                      8                      9
                      A                      A                      A
 Frequencies --    192.9923               250.7802               270.6213
 Red. masses --      4.6276                 3.1847                 3.3787
 Frc consts  --      0.1016                 0.1180                 0.1458
 IR Inten    --      1.9222                 3.5911                 3.0090

                     10                     11                     12
                      A                      A                      A
 Frequencies --    296.3509               314.7633               347.3732
 Red. masses --      3.1472                 4.3966                 4.2564
 Frc consts  --      0.1629                 0.2566                 0.3026
 IR Inten    --      1.2901                 5.8201                 5.0404

                     13                     14                     15
                      A                      A                      A
 Frequencies --    407.6885               436.2050               477.2904
 Red. masses --      4.3946                 3.5574                 5.9704
 Frc consts  --      0.4304                 0.3988                 0.8013
 IR Inten    --      3.1953                 4.0620                19.1915

                     16                     17                     18
                      A                      A                      A
 Frequencies --    489.0553               535.3799               568.5821
 Red. masses --      3.5954                 4.3672                 4.9249
 Frc consts  --      0.5067                 0.7375                 0.9381
 IR Inten    --      2.9841                 7.3458                 8.2018

                     19                     20                     21
                      A                      A                      A
 Frequencies --    585.7072               603.2292               690.6642
 Red. masses --      2.5052                 3.5700                 4.0807
 Frc consts  --      0.5064                 0.7654                 1.1469
 IR Inten    --     21.3096                16.0446                 2.7133

                     22                     23                     24
                      A                      A                      A
 Frequencies --    698.0581               713.2463               742.4103
 Red. masses --      4.1633                 2.0431                 2.3316
 Frc consts  --      1.1953                 0.6124                 0.7572
 IR Inten    --      3.2379                41.9564                 1.9319

                     25                     26                     27
                      A                      A                      A
 Frequencies --    756.5909               800.0002               820.8022
 Red. masses --      1.9058                 2.4143                 3.4441
 Frc consts  --      0.6428                 0.9104                 1.3671
 IR Inten    --      8.5041                11.1614                 2.5297

                     28                     29                     30
                      A                      A                      A
 Frequencies --    833.8798               858.7210               925.1144
 Red. masses --      3.4771                 2.4052                 1.8818
 Frc consts  --      1.4246                 1.0450                 0.9489
 IR Inten    --     28.3334                20.0830                 3.7983

                     31                     32                     33
                      A                      A                      A
 Frequencies --    940.8417               945.9105               962.2211
 Red. masses --      1.4636                 2.2391                 1.2047
 Frc consts  --      0.7633                 1.1804                 0.6572
 IR Inten    --     13.7133                12.5436                 3.6332

                     34                     35                     36
                      A                      A                      A
 Frequencies --    975.5314              1038.8469              1060.6680
 Red. masses --      1.3333                 4.7027                 2.7994
 Frc consts  --      0.7476                 2.9902                 1.8555
 IR Inten    --     15.1286                17.7572                46.8705

                     37                     38                     39
                      A                      A                      A
 Frequencies --   1061.3001              1095.5957              1102.0039
 Red. masses --      1.6568                 1.8724                 2.1103
 Frc consts  --      1.0995                 1.3242                 1.5099
 IR Inten    --     11.2197                 2.7234                 8.2890

                     40                     41                     42
                      A                      A                      A
 Frequencies --   1151.1484              1174.4295              1207.8977
 Red. masses --      2.1064                 1.7526                 1.3476
 Frc consts  --      1.6446                 1.4243                 1.1584
 IR Inten    --      7.3388                 1.0271                 4.1907

                     43                     44                     45
                      A                      A                      A
 Frequencies --   1221.0204              1289.9815              1328.7497
 Red. masses --      1.6681                 2.6067                 1.6805
 Frc consts  --      1.4653                 2.5556                 1.7481
 IR Inten    --     23.8310                 3.9192                15.9011

                     46                     47                     48
                      A                      A                      A
 Frequencies --   1343.1624              1395.4885              1464.4073
 Red. masses --      1.1651                 1.6356                 1.0592
 Frc consts  --      1.2384                 1.8767                 1.3383
 IR Inten    --      4.4833                 5.6425                 7.8389

                     49                     50                     51
                      A                      A                      A
 Frequencies --   1474.2640              1477.3445              1490.8446
 Red. masses --      3.4421                 1.0809                 1.4487
 Frc consts  --      4.4078                 1.3899                 1.8971
 IR Inten    --     13.1550                16.2341                22.7094

                     52                     53                     54
                      A                      A                      A
 Frequencies --   1530.2060              1577.1068              1630.6227
 Red. masses --      6.7184                 5.6651                11.3975
 Frc consts  --      9.2686                 8.3020                17.8553
 IR Inten    --     42.2495                12.1099                56.8749

                     55                     56                     57
                      A                      A                      A
 Frequencies --   1660.3881              1710.7210              3036.1822
 Red. masses --      7.2479                 6.6379                 1.0603
 Frc consts  --     11.7728                11.4457                 5.7591
 IR Inten    --      2.0855                19.1124                24.1105

                     58                     59                     60
                      A                      A                      A
 Frequencies --   3057.2302              3145.4419              3156.3678
 Red. masses --      1.0289                 1.1037                 1.0900
 Frc consts  --      5.6662                 6.4340                 6.3980
 IR Inten    --     17.3887                 5.0416                 3.5639

                     61                     62                     63
                      A                      A                      A
 Frequencies --   3158.0311              3158.1238              3166.2077
 Red. masses --      1.1043                 1.1074                 1.0868
 Frc consts  --      6.4889                 6.5076                 6.4195
 IR Inten    --     19.3061                 9.5193                13.8979

                     64                     65                     66
                      A                      A                      A
 Frequencies --   3176.7203              3189.1359              3207.5756
 Red. masses --      1.0934                 1.0918                 1.1026
 Frc consts  --      6.5010                 6.5427                 6.6835
 IR Inten    --     27.8850                14.4195                16.2039

 - Thermochemistry -
 -------------------
 Temperature   298.150 Kelvin.  Pressure   1.00000 Atm.
 Atom     1 has atomic number  6 and mass  12.00000

 Molecular mass:   202.05647 amu.
 Principal axes and moments of inertia in atomic units:
                           1         2         3
     Eigenvalues --  1969.042693076.984873757.56582
           X            0.99949  -0.01619  -0.02745
           Y            0.01532   0.99939  -0.03140
           Z            0.02795   0.03096   0.99913
 This molecule is an asymmetric top.
 Rotational symmetry number  1.
 Warning -- assumption of classical behavior for rotation
           may cause significant error
 Rotational temperatures (Kelvin)      0.04399     0.02815     0.02305
 Rotational constants (GHZ):           0.91656     0.58653     0.48030
 Zero-point vibrational energy     472529.5 (Joules/Mol)
                                  112.93727 (Kcal/Mol)
 Warning -- explicit consideration of  20 degrees of freedom as
           vibrations may cause significant error
 Vibrational temperatures:     68.63   106.08   123.08   168.20   194.02
          (Kelvin)            237.13   277.67   360.82   389.36   426.38
                              452.87   499.79   586.57   627.60   686.71
                              703.64   770.29   818.06   842.70   867.91
                              993.71  1004.35  1026.20  1068.16  1088.57
                             1151.02  1180.95  1199.77  1235.51  1331.03
                             1353.66  1360.95  1384.42  1403.57  1494.67
                             1526.06  1526.97  1576.32  1585.54  1656.25
                             1689.74  1737.90  1756.78  1856.00  1911.77
                             1932.51  2007.80  2106.96  2121.14  2125.57
                             2144.99  2201.63  2269.10  2346.10  2388.93
                             2461.35  4368.39  4398.67  4525.59  4541.31
                             4543.70  4543.84  4555.47  4570.59  4588.46
                             4614.99

 Zero-point correction=                           0.179977 (Hartree/Particle)
 Thermal correction to Energy=                    0.192969
 Thermal correction to Enthalpy=                  0.193913
 Thermal correction to Gibbs Free Energy=         0.140390
 Sum of electronic and zero-point Energies=           -932.527503
 Sum of electronic and thermal Energies=              -932.514511
 Sum of electronic and thermal Enthalpies=            -932.513567
 Sum of electronic and thermal Free Energies=         -932.567090

                     E (Thermal)             CV                S
                      KCal/Mol        Cal/Mol-Kelvin    Cal/Mol-Kelvin
 Total                  121.090             49.669            112.650
 Electronic               0.000              0.000              0.000
 Translational            0.889              2.981             41.815
 Rotational               0.889              2.981             31.499
 Vibrational            119.313             43.708             39.336
 Vibration     1          0.595              1.978              4.911
 Vibration     2          0.599              1.966              4.051
 Vibration     3          0.601              1.959              3.759
 Vibration     4          0.608              1.935              3.151
 Vibration     5          0.613              1.919              2.876
 Vibration     6          0.623              1.886              2.494
 Vibration     7          0.635              1.850              2.199
 Vibration     8          0.663              1.761              1.725
 Vibration     9          0.674              1.727              1.592
 Vibration    10          0.690              1.681              1.437
 Vibration    11          0.702              1.645              1.337
 Vibration    12          0.725              1.581              1.178
 Vibration    13          0.772              1.454              0.935
 Vibration    14          0.797              1.391              0.839
 Vibration    15          0.834              1.300              0.717
 Vibration    16          0.845              1.274              0.686
 Vibration    17          0.890              1.172              0.575
 Vibration    18          0.925              1.099              0.507
 Vibration    19          0.943              1.062              0.475
 Vibration    20          0.962              1.025              0.444

 Optimization completed.
    -- Stationary point found.
 Normal termination of Gaussian 16 at Mon May 15 21:16:36 2023.
