 Gaussian 16, Revision A.03,
 Gaussian 16:  ES64L-G16RevA.03 25-Dec-2016

 -----------------------------
 # opt freq b3lyp/6-31g(2df,p)
 -----------------------------

 -------------------
 Title Card Required
 -------------------
 Symbolic Z-matrix:
 Charge =  0 Multiplicity = 1

 SCF Done:  E(RB3LYP) =  -699.146646319     A.U. after   23 cycles
 SCF Done:  E(RB3LYP) =  -699.225489332     A.U. after   15 cycles
 SCF Done:  E(RB3LYP) =  -699.309045689     A.U. after   15 cycles
 SCF Done:  E(RB3LYP) =  -699.338738626     A.U. after   15 cycles
 SCF Done:  E(RB3LYP) =  -699.343321931     A.U. after   17 cycles
 SCF Done:  E(RB3LYP) =  -699.344367641     A.U. after   17 cycles
 SCF Done:  E(RB3LYP) =  -699.348224533     A.U. after   17 cycles
 SCF Done:  E(RB3LYP) =  -699.281581665     A.U. after   21 cycles
 SCF Done:  E(RB3LYP) =  -699.361476201     A.U. after   16 cycles
 SCF Done:  E(RB3LYP) =  -699.368766388     A.U. after   15 cycles
 SCF Done:  E(RB3LYP) =  -699.416699847     A.U. after   12 cycles
 SCF Done:  E(RB3LYP) =  -699.416728050     A.U. after   11 cycles
 SCF Done:  E(RB3LYP) =  -699.416747070     A.U. after   11 cycles
 SCF Done:  E(RB3LYP) =  -699.416756309     A.U. after   11 cycles
 SCF Done:  E(RB3LYP) =  -699.416765588     A.U. after   11 cycles
 SCF Done:  E(RB3LYP) =  -699.416770711     A.U. after   11 cycles
 SCF Done:  E(RB3LYP) =  -699.416773089     A.U. after   10 cycles
 SCF Done:  E(RB3LYP) =  -699.416773302     A.U. after    8 cycles
 SCF Done:  E(RB3LYP) =  -699.416773358     A.U. after    7 cycles
 Optimization completed.
    -- Stationary point found.
 Normal termination of Gaussian 16 at Sat May 20 15:06:39 2023.

 ----------------------------------------------------------------------
 #N Geom=AllCheck Guess=TCheck SCRF=Check GenChk RB3LYP/6-31G(2df,p) Fr
 eq
 ----------------------------------------------------------------------

 Structure from the checkpoint file:  "CN1CdCNdNCdC2CdCCdC2NdCNdC1.chk"
 -------------------
 Title Card Required
 -------------------
 Charge =  0 Multiplicity = 1

                         Standard orientation:
 ---------------------------------------------------------------------
 Center     Atomic      Atomic             Coordinates (Angstroms)
 Number     Number       Type             X           Y           Z
 ---------------------------------------------------------------------
      1          6           0       -4.514353   -0.198248    0.515341
      2          7           0       -3.140954    0.014847    0.073581
      3          6           0       -2.124432   -0.791799    0.626926
      4          6           0       -1.324246   -1.518888   -0.166792
      5          7           0       -0.050156   -1.779390    0.326792
      6          7           0        0.762644   -2.134760   -0.572347
      7          6           0        2.084424   -1.845882   -0.301076
      8          6           0        2.510110   -0.581171   -0.034768
      9          6           0        3.881827   -0.204598    0.258078
     10          6           0        3.914673    1.143098    0.441799
     11          6           0        2.592976    1.707975    0.215501
     12          6           0        1.719019    0.697309   -0.070938
     13          7           0        0.420267    0.769120   -0.538063
     14          6           0       -0.434501    1.566541   -0.023490
     15          7           0       -1.679810    1.841264   -0.550858
     16          6           0       -2.793439    1.233711   -0.492659
     17          1           0       -4.830453   -1.219515    0.285976
     18          1           0       -5.175630    0.497995   -0.006034
     19          1           0       -4.623999   -0.033371    1.596186
     20          1           0       -1.910987   -0.699271    1.691399
     21          1           0       -1.511419   -1.638528   -1.231553
     22          1           0        2.796985   -2.643010   -0.498789
     23          1           0        4.694494   -0.905553    0.385171
     24          1           0        4.785417    1.724325    0.718691
     25          1           0        2.363956    2.764138    0.182446
     26          1           0       -0.185137    2.203314    0.838843
     27          1           0       -3.659503    1.723628   -0.943603
 ---------------------------------------------------------------------

 SCF Done:  E(RB3LYP) =  -699.416773358     A.U. after    1 cycles

 The electronic state is 1-A.
 Alpha  occ. eigenvalues --  -14.38503 -14.38253 -14.38188 -14.32463 -14.30916
 Alpha  occ. eigenvalues --  -10.27715 -10.24733 -10.24046 -10.23833 -10.22400
 Alpha  occ. eigenvalues --  -10.22286 -10.20268 -10.19301 -10.17518 -10.16247
 Alpha  occ. eigenvalues --  -10.16038  -1.04065  -0.99134  -0.93796  -0.88982
 Alpha  occ. eigenvalues --   -0.85132  -0.82376  -0.76478  -0.72941  -0.70795
 Alpha  occ. eigenvalues --   -0.68737  -0.64721  -0.62854  -0.57337  -0.55804
 Alpha  occ. eigenvalues --   -0.54668  -0.53588  -0.51693  -0.51500  -0.49412
 Alpha  occ. eigenvalues --   -0.48121  -0.47324  -0.44854  -0.44034  -0.42350
 Alpha  occ. eigenvalues --   -0.42139  -0.40906  -0.39817  -0.39497  -0.36500
 Alpha  occ. eigenvalues --   -0.36057  -0.35971  -0.35562  -0.32454  -0.28442
 Alpha  occ. eigenvalues --   -0.28155  -0.26212  -0.25333  -0.23055  -0.21436
 Alpha  occ. eigenvalues --   -0.18085
 Alpha virt. eigenvalues --   -0.08890  -0.04235   0.00258   0.01984   0.02488
 Alpha virt. eigenvalues --    0.08260   0.09591   0.11289   0.12378   0.12523
 Alpha virt. eigenvalues --    0.13189   0.13815   0.13942   0.14876   0.15284

 Mulliken charges:
               1
     1  C   -0.341666
     2  N   -0.064310
     3  C   -0.063334
     4  C    0.011619
     5  N   -0.123507
     6  N   -0.117033
     7  C   -0.123590
     8  C    0.242325
     9  C   -0.197647
    10  C   -0.104984
    11  C   -0.216747
    12  C    0.220479
    13  N   -0.277266
    14  C    0.021868
    15  N   -0.260963
    16  C    0.101032
    17  H    0.143788
    18  H    0.142174
    19  H    0.133899
    20  H    0.126782
    21  H    0.121757
    22  H    0.123351
    23  H    0.092422
    24  H    0.096106
    25  H    0.092574
    26  H    0.099567
    27  H    0.121302
 Sum of Mulliken charges =  -0.00000

 Dipole moment (field-independent basis, Debye):
    X=             -3.9395    Y=             -0.6286    Z=              1.5681  Tot=              4.2865
 Quadrupole moment (field-independent basis, Debye-Ang):
   XX=            -69.6947   YY=            -90.3771   ZZ=            -94.0703
   XY=             -1.1156   XZ=             -1.2948   YZ=              2.6312

  Exact polarizability: 277.135   7.665 159.396   2.273   8.679  86.494
 Approx polarizability: 442.251  22.924 315.714  -6.507  29.822 156.664

                      1                      2                      3
                      A                      A                      A
 Frequencies --     43.2432                96.0056               107.1493
 Red. masses --      4.1009                 3.9622                 3.7950
 Frc consts  --      0.0045                 0.0215                 0.0257
 IR Inten    --      3.2606                 1.7383                 8.1559

                      4                      5                      6
                      A                      A                      A
 Frequencies --    115.9454               147.4433               170.2118
 Red. masses --      3.7401                 1.7769                 1.9104
 Frc consts  --      0.0296                 0.0228                 0.0326
 IR Inten    --      2.4653                 2.8456                 0.9475

                      7                      8                      9
                      A                      A                      A
 Frequencies --    188.1985               198.6390               231.8179
 Red. masses --      3.6601                 5.0423                 3.6875
 Frc consts  --      0.0764                 0.1172                 0.1168
 IR Inten    --      0.9146                 1.0858                 2.9372

                     10                     11                     12
                      A                      A                      A
 Frequencies --    243.0027               277.9121               301.2856
 Red. masses --      3.7081                 3.3777                 3.6533
 Frc consts  --      0.1290                 0.1537                 0.1954
 IR Inten    --      7.1145                 1.3316                 1.5957

                     13                     14                     15
                      A                      A                      A
 Frequencies --    356.7014               387.7250               396.0871
 Red. masses --      3.7210                 4.1170                 5.8213
 Frc consts  --      0.2789                 0.3647                 0.5381
 IR Inten    --      5.8548                10.9183                 0.0875

                     16                     17                     18
                      A                      A                      A
 Frequencies --    447.1665               461.9389               498.1361
 Red. masses --      6.0307                 4.8234                 3.6852
 Frc consts  --      0.7105                 0.6064                 0.5388
 IR Inten    --     15.2249                 3.7040                17.3504

                     19                     20                     21
                      A                      A                      A
 Frequencies --    535.6039               552.4063               577.7419
 Red. masses --      4.9661                 4.4027                 3.3803
 Frc consts  --      0.8394                 0.7916                 0.6648
 IR Inten    --      3.5435                 0.3440                 2.6250

                     22                     23                     24
                      A                      A                      A
 Frequencies --    674.0405               684.5046               700.7371
 Red. masses --      3.5775                 5.1643                 2.2373
 Frc consts  --      0.9576                 1.4257                 0.6473
 IR Inten    --     17.4149                21.1841                 4.8595

                     25                     26                     27
                      A                      A                      A
 Frequencies --    732.9037               763.0809               811.7095
 Red. masses --      4.8383                 1.9729                 5.4559
 Frc consts  --      1.5312                 0.6769                 2.1180
 IR Inten    --      7.0814                36.0850                10.1755

                     28                     29                     30
                      A                      A                      A
 Frequencies --    820.0854               836.0272               876.5054
 Red. masses --      1.7375                 3.5109                 2.1749
 Frc consts  --      0.6885                 1.4458                 0.9845
 IR Inten    --     17.2678                20.3287                57.8707

                     31                     32                     33
                      A                      A                      A
 Frequencies --    904.1592               917.8932               940.9339
 Red. masses --      1.7840                 1.3319                 2.9559
 Frc consts  --      0.8593                 0.6612                 1.5419
 IR Inten    --     21.2149                 0.7299                23.7683

                     34                     35                     36
                      A                      A                      A
 Frequencies --    970.1264               986.2402               990.7124
 Red. masses --      1.6488                 1.3731                 1.5581
 Frc consts  --      0.9142                 0.7869                 0.9010
 IR Inten    --     30.6018                38.9378                12.5369

                     37                     38                     39
                      A                      A                      A
 Frequencies --   1020.5838              1045.4399              1077.5716
 Red. masses --      1.7336                 2.2572                 3.1741
 Frc consts  --      1.0639                 1.4535                 2.1715
 IR Inten    --     13.8676                76.9316                27.2577

                     40                     41                     42
                      A                      A                      A
 Frequencies --   1102.5011              1107.5597              1150.7937
 Red. masses --      1.6614                 1.4324                 2.2053
 Frc consts  --      1.1898                 1.0353                 1.7208
 IR Inten    --     40.9755                24.3100                15.5643

                     43                     44                     45
                      A                      A                      A
 Frequencies --   1153.4896              1190.6553              1225.6969
 Red. masses --      1.7147                 3.3923                 3.2861
 Frc consts  --      1.3442                 2.8335                 2.9087
 IR Inten    --      6.2917                14.8133                50.9440

                     46                     47                     48
                      A                      A                      A
 Frequencies --   1239.7002              1272.5530              1293.6669
 Red. masses --      2.2654                 1.9011                 1.6606
 Frc consts  --      2.0513                 1.8139                 1.6374
 IR Inten    --      1.1499                 5.7925                 8.3945

                     49                     50                     51
                      A                      A                      A
 Frequencies --   1309.7276              1334.6198              1360.8796
 Red. masses --      1.4603                 1.8619                 2.4156
 Frc consts  --      1.4759                 1.9540                 2.6358
 IR Inten    --      6.6697                18.3141               110.4518

                     52                     53                     54
                      A                      A                      A
 Frequencies --   1384.0837              1399.9219              1444.1191
 Red. masses --      1.9654                 1.8281                 1.2086
 Frc consts  --      2.2183                 2.1109                 1.4851
 IR Inten    --     51.8358                 4.4807                 4.5237

                     55                     56                     57
                      A                      A                      A
 Frequencies --   1478.3214              1478.6034              1486.8450
 Red. masses --      1.0432                 1.4857                 3.4136
 Frc consts  --      1.3433                 1.9137                 4.4462
 IR Inten    --      9.8829                21.8682                11.7613

                     58                     59                     60
                      A                      A                      A
 Frequencies --   1510.7323              1520.1433              1591.8483
 Red. masses --      8.5756                 1.0731                 5.4977
 Frc consts  --     11.5316                 1.4611                 8.2080
 IR Inten    --     21.8432                22.0802                 8.1659

                     61                     62                     63
                      A                      A                      A
 Frequencies --   1617.4941              1665.6626              1675.9746
 Red. masses --      7.2005                 9.2425                 6.0750
 Frc consts  --     11.0993                15.1082                10.0538
 IR Inten    --     47.9227               259.9434                43.3368

                     64                     65                     66
                      A                      A                      A
 Frequencies --   1753.8032              2997.1221              3008.8388
 Red. masses --      9.9159                 1.0832                 1.0449
 Frc consts  --     17.9698                 5.7328                 5.5733
 IR Inten    --    412.9557                34.2605                76.3591

                     67                     68                     69
                      A                      A                      A
 Frequencies --   3084.6678              3101.4561              3127.0846
 Red. masses --      1.0901                 1.0873                 1.1025
 Frc consts  --      6.1115                 6.1620                 6.3521
 IR Inten    --     20.8020                56.1570                14.3579

                     70                     71                     72
                      A                      A                      A
 Frequencies --   3130.6806              3158.5637              3162.8664
 Red. masses --      1.0885                 1.0929                 1.0885
 Frc consts  --      6.2856                 6.4238                 6.4157
 IR Inten    --     10.7200                12.4753                 8.6498

                     73                     74                     75
                      A                      A                      A
 Frequencies --   3205.3729              3226.7890              3237.3084
 Red. masses --      1.0874                 1.0933                 1.1025
 Frc consts  --      6.5825                 6.7073                 6.8075
 IR Inten    --      9.9800                 8.5658                14.3216

 - Thermochemistry -
 -------------------
 Temperature   298.150 Kelvin.  Pressure   1.00000 Atm.
 Atom     1 has atomic number  6 and mass  12.00000

 Molecular mass:   213.10145 amu.
 Principal axes and moments of inertia in atomic units:
                           1         2         3
     Eigenvalues --  1502.325715009.353616225.83809
           X            0.99999   0.00372  -0.00194
           Y           -0.00371   0.99994   0.00986
           Z            0.00198  -0.00985   0.99995
 This molecule is an asymmetric top.
 Rotational symmetry number  1.
 Warning -- assumption of classical behavior for rotation
           may cause significant error
 Rotational temperatures (Kelvin)      0.05765     0.01729     0.01391
 Rotational constants (GHZ):           1.20130     0.36027     0.28988
 Zero-point vibrational energy     545962.3 (Joules/Mol)
                                  130.48811 (Kcal/Mol)
 Warning -- explicit consideration of  21 degrees of freedom as
           vibrations may cause significant error
 Vibrational temperatures:     62.22   138.13   154.16   166.82   212.14
          (Kelvin)            244.90   270.78   285.80   333.53   349.63
                              399.85   433.48   513.21   557.85   569.88
                              643.37   664.63   716.71   770.61   794.79
                              831.24   969.79   984.85  1008.20  1054.49
                             1097.90  1167.87  1179.92  1202.86  1261.10
                             1300.88  1320.64  1353.79  1395.80  1418.98
                             1425.41  1468.39  1504.15  1550.39  1586.25
                             1593.53  1655.74  1659.61  1713.09  1763.50
                             1783.65  1830.92  1861.30  1884.41  1920.22
                             1958.00  1991.39  2014.18  2077.77  2126.97
                             2127.38  2139.24  2173.61  2187.15  2290.31
                             2327.21  2396.52  2411.35  2523.33  4312.19
                             4329.05  4438.15  4462.30  4499.18  4504.35
                             4544.47  4550.66  4611.82  4642.63  4657.76

 Zero-point correction=                           0.207946 (Hartree/Particle)
 Thermal correction to Energy=                    0.221794
 Thermal correction to Enthalpy=                  0.222738
 Thermal correction to Gibbs Free Energy=         0.167561
 Sum of electronic and zero-point Energies=           -699.208827
 Sum of electronic and thermal Energies=              -699.194979
 Sum of electronic and thermal Enthalpies=            -699.194035
 Sum of electronic and thermal Free Energies=         -699.249212

                     E (Thermal)             CV                S
                      KCal/Mol        Cal/Mol-Kelvin    Cal/Mol-Kelvin
 Total                  139.178             53.326            116.130
 Electronic               0.000              0.000              0.000
 Translational            0.889              2.981             41.973
 Rotational               0.889              2.981             32.216
 Vibrational            137.401             47.365             41.941
 Vibration     1          0.595              1.980              5.105
 Vibration     2          0.603              1.952              3.534
 Vibration     3          0.606              1.944              3.320
 Vibration     4          0.608              1.936              3.167
 Vibration     5          0.617              1.905              2.705
 Vibration     6          0.625              1.879              2.433
 Vibration     7          0.633              1.856              2.245
 Vibration     8          0.637              1.842              2.146
 Vibration     9          0.653              1.792              1.865
 Vibration    10          0.659              1.774              1.781
 Vibration    11          0.679              1.714              1.546
 Vibration    12          0.693              1.671              1.410
 Vibration    13          0.732              1.561              1.136
 Vibration    14          0.756              1.496              1.009
 Vibration    15          0.763              1.479              0.977
 Vibration    16          0.806              1.367              0.804
 Vibration    17          0.820              1.334              0.760
 Vibration    18          0.854              1.254              0.663
 Vibration    19          0.891              1.171              0.575
 Vibration    20          0.908              1.134              0.539
 Vibration    21          0.934              1.079              0.490

 Optimization completed.
    -- Stationary point found.
 Normal termination of Gaussian 16 at Sat May 20 17:16:17 2023.
