 Gaussian 16, Revision A.03,
 Gaussian 16:  ES64L-G16RevA.03 25-Dec-2016

 -----------------------------
 # opt freq b3lyp/6-31g(2df,p)
 -----------------------------

 -------------------
 Title Card Required
 -------------------
 Symbolic Z-matrix:
 Charge =  0 Multiplicity = 1

 SCF Done:  E(RB3LYP) =  -1402.25083831     A.U. after   19 cycles
 SCF Done:  E(RB3LYP) =  -1402.27060182     A.U. after   14 cycles
 SCF Done:  E(RB3LYP) =  -1402.27504526     A.U. after   14 cycles
 SCF Done:  E(RB3LYP) =  -1402.27728809     A.U. after   14 cycles
 SCF Done:  E(RB3LYP) =  -1402.27904517     A.U. after   14 cycles
 SCF Done:  E(RB3LYP) =  -1402.28217465     A.U. after   15 cycles
 SCF Done:  E(RB3LYP) =  -1402.28503726     A.U. after   14 cycles
 SCF Done:  E(RB3LYP) =  -1402.28852061     A.U. after   15 cycles
 SCF Done:  E(RB3LYP) =  -1402.29265337     A.U. after   14 cycles
 SCF Done:  E(RB3LYP) =  -1402.29596763     A.U. after   14 cycles
 SCF Done:  E(RB3LYP) =  -1402.31682563     A.U. after    9 cycles
 SCF Done:  E(RB3LYP) =  -1402.31682728     A.U. after    9 cycles
 SCF Done:  E(RB3LYP) =  -1402.31682822     A.U. after    9 cycles
 SCF Done:  E(RB3LYP) =  -1402.31682909     A.U. after    8 cycles
 SCF Done:  E(RB3LYP) =  -1402.31682948     A.U. after    8 cycles
 SCF Done:  E(RB3LYP) =  -1402.31682963     A.U. after    8 cycles
 SCF Done:  E(RB3LYP) =  -1402.31682973     A.U. after    8 cycles
 SCF Done:  E(RB3LYP) =  -1402.31682978     A.U. after    8 cycles
 SCF Done:  E(RB3LYP) =  -1402.31682980     A.U. after    8 cycles
 Optimization completed.
    -- Stationary point found.
 Normal termination of Gaussian 16 at Sat May 20 10:03:36 2023.

 ----------------------------------------------------------------------
 #N Geom=AllCheck Guess=TCheck SCRF=Check GenChk RB3LYP/6-31G(2df,p) Fr
 eq
 ----------------------------------------------------------------------

 Structure from the checkpoint file:  "Cn1ccc2ccccscd2cnsnn1.chk"
 -------------------
 Title Card Required
 -------------------
 Charge =  0 Multiplicity = 1

                         Standard orientation:
 ---------------------------------------------------------------------
 Center     Atomic      Atomic             Coordinates (Angstroms)
 Number     Number       Type             X           Y           Z
 ---------------------------------------------------------------------
      1          6           0        3.740841    1.763658    1.155026
      2          7           0        2.832040    0.948537    0.362139
      3          6           0        1.481740    1.038712    0.498185
      4          6           0        0.621764    1.038385   -0.561741
      5          6           0       -0.767016    0.807047   -0.357546
      6          6           0       -1.714517    1.423964   -1.259289
      7          6           0       -2.974836    1.025144   -1.583468
      8          6           0       -3.794121   -0.016237   -1.020905
      9          6           0       -3.779143   -0.490755    0.241914
     10         16           0       -2.700174    0.133979    1.489549
     11          6           0       -1.117856   -0.087475    0.660487
     12          6           0       -0.459756   -1.330337    0.961084
     13          7           0        0.561461   -1.969597    0.482620
     14         16           0        1.765153   -1.925516   -0.617867
     15          7           0        2.925141   -0.784177   -1.111656
     16          7           0        3.436134    0.273305   -0.679961
     17          1           0        3.378528    1.790110    2.186646
     18          1           0        3.797037    2.790059    0.775349
     19          1           0        4.731763    1.311395    1.130013
     20          1           0        1.107328    1.113224    1.517236
     21          1           0        1.014131    1.223080   -1.557822
     22          1           0       -1.298240    2.224758   -1.866420
     23          1           0       -3.423166    1.536086   -2.433382
     24          1           0       -4.547701   -0.429220   -1.689456
     25          1           0       -4.472217   -1.269610    0.545593
     26          1           0       -1.033165   -1.934408    1.670859
 ---------------------------------------------------------------------

 SCF Done:  E(RB3LYP) =  -1402.31682980     A.U. after    1 cycles

 The electronic state is 1-A.
 Alpha  occ. eigenvalues --  -88.94400 -88.88329 -14.41705 -14.41301 -14.38998
 Alpha  occ. eigenvalues --  -14.34456 -10.24324 -10.24179 -10.24045 -10.22282
 Alpha  occ. eigenvalues --  -10.22273 -10.21948 -10.20777 -10.20379 -10.20312
 Alpha  occ. eigenvalues --  -10.20078  -7.99448  -7.94463  -5.96138  -5.95440
 Alpha  occ. eigenvalues --   -5.95156  -5.90958  -5.90602  -5.90034  -1.07663
 Alpha  occ. eigenvalues --   -0.95025  -0.92611  -0.86281  -0.82025  -0.79969
 Alpha  occ. eigenvalues --   -0.78069  -0.76214  -0.71579  -0.70735  -0.67251
 Alpha  occ. eigenvalues --   -0.63973  -0.62354  -0.57182  -0.55289  -0.53293
 Alpha  occ. eigenvalues --   -0.52808  -0.50192  -0.49160  -0.47940  -0.46305
 Alpha  occ. eigenvalues --   -0.44575  -0.43343  -0.42447  -0.42074  -0.41285
 Alpha  occ. eigenvalues --   -0.40280  -0.39007  -0.37967  -0.37099  -0.36382
 Alpha  occ. eigenvalues --   -0.33909  -0.33009  -0.32453  -0.31304  -0.29002
 Alpha  occ. eigenvalues --   -0.26589  -0.23984  -0.22841  -0.22474  -0.20527
 Alpha virt. eigenvalues --   -0.09002  -0.05027  -0.02986  -0.01007   0.01669
 Alpha virt. eigenvalues --    0.03660   0.04923   0.07909   0.08747   0.09114
 Alpha virt. eigenvalues --    0.11216   0.11621   0.12560   0.13323   0.13477

 Mulliken charges:
               1
     1  C   -0.327301
     2  N    0.019922
     3  C   -0.009128
     4  C   -0.251242
     5  C    0.256417
     6  C   -0.135385
     7  C   -0.074244
     8  C   -0.076327
     9  C   -0.119666
    10  S   -0.182009
    11  C   -0.030512
    12  C    0.036262
    13  N   -0.227208
    14  S    0.061751
    15  N   -0.106551
    16  N   -0.107897
    17  H    0.146689
    18  H    0.146041
    19  H    0.160790
    20  H    0.127502
    21  H    0.123657
    22  H    0.096280
    23  H    0.105069
    24  H    0.108442
    25  H    0.124633
    26  H    0.134013
 Sum of Mulliken charges =  -0.00000

 Dipole moment (field-independent basis, Debye):
    X=             -0.8226    Y=              2.9494    Z=              0.6514  Tot=              3.1305
 Quadrupole moment (field-independent basis, Debye-Ang):
   XX=           -100.3474   YY=           -106.7075   ZZ=           -103.7589
   XY=             11.9845   XZ=             14.2601   YZ=             -1.4851

  Exact polarizability: 291.220  12.566 156.124   1.281  -8.620 144.662
 Approx polarizability: 540.084  44.300 329.324 -28.923 -34.351 286.030

                      1                      2                      3
                      A                      A                      A
 Frequencies --     31.6940                58.0975                74.9348
 Red. masses --      3.9960                 5.5970                 1.1160
 Frc consts  --      0.0024                 0.0111                 0.0037
 IR Inten    --      1.2243                 1.0649                 0.6994

                      4                      5                      6
                      A                      A                      A
 Frequencies --     97.8412               121.6043               151.6806
 Red. masses --      4.9725                 4.8802                 4.5488
 Frc consts  --      0.0280                 0.0425                 0.0617
 IR Inten    --      0.5866                 0.8475                 4.1196

                      7                      8                      9
                      A                      A                      A
 Frequencies --    186.1084               200.9823               215.5682
 Red. masses --      7.8637                 6.4878                 6.1543
 Frc consts  --      0.1605                 0.1544                 0.1685
 IR Inten    --      0.2202                 2.1356                 1.4127

                     10                     11                     12
                      A                      A                      A
 Frequencies --    245.2546               282.0651               293.4567
 Red. masses --      6.8651                 5.1203                 4.4293
 Frc consts  --      0.2433                 0.2400                 0.2247
 IR Inten    --      0.8042                 0.8391                 8.7589

                     13                     14                     15
                      A                      A                      A
 Frequencies --    317.5024               361.2907               388.0170
 Red. masses --      3.1657                 5.1790                 6.4276
 Frc consts  --      0.1880                 0.3983                 0.5702
 IR Inten    --      9.8958                 6.6977                 4.3095

                     16                     17                     18
                      A                      A                      A
 Frequencies --    400.7264               419.1953               436.1417
 Red. masses --      4.6598                 6.2996                 9.0778
 Frc consts  --      0.4409                 0.6522                 1.0174
 IR Inten    --     12.2052                10.0897                12.5344

                     19                     20                     21
                      A                      A                      A
 Frequencies --    454.6972               487.2362               514.5054
 Red. masses --      4.6167                 7.6883                 3.8601
 Frc consts  --      0.5624                 1.0754                 0.6020
 IR Inten    --      3.4883                 8.0069                 2.3396

                     22                     23                     24
                      A                      A                      A
 Frequencies --    516.4544               565.1920               616.5895
 Red. masses --      5.1977                 4.8493                 4.3939
 Frc consts  --      0.8168                 0.9127                 0.9842
 IR Inten    --      4.8705                 5.8189                14.4999

                     25                     26                     27
                      A                      A                      A
 Frequencies --    672.0717               692.6710               722.0716
 Red. masses --      3.2066                 4.5711                 2.5291
 Frc consts  --      0.8533                 1.2922                 0.7769
 IR Inten    --     13.3124                19.9282                41.2561

                     28                     29                     30
                      A                      A                      A
 Frequencies --    741.6663               753.9183               772.7351
 Red. masses --      4.5964                 6.8415                 5.2203
 Frc consts  --      1.4896                 2.2911                 1.8366
 IR Inten    --      3.7412                29.4006                15.7138

                     31                     32                     33
                      A                      A                      A
 Frequencies --    839.8468               858.7149               867.6722
 Red. masses --      1.5837                 2.0241                 3.7656
 Frc consts  --      0.6582                 0.8794                 1.6703
 IR Inten    --     43.6980                27.5885                19.4620

                     34                     35                     36
                      A                      A                      A
 Frequencies --    889.5787               906.0668               937.5747
 Red. masses --      4.1947                 1.3456                 1.4093
 Frc consts  --      1.9558                 0.6508                 0.7299
 IR Inten    --     65.9841                79.5436                 1.5766

                     37                     38                     39
                      A                      A                      A
 Frequencies --    951.6329               980.2464              1009.8090
 Red. masses --      1.8332                 1.9639                 1.5912
 Frc consts  --      0.9782                 1.1118                 0.9560
 IR Inten    --      3.6226                 4.3538                 8.2042

                     40                     41                     42
                      A                      A                      A
 Frequencies --   1011.5004              1073.0727              1136.9419
 Red. masses --      2.3542                 2.0650                 1.4441
 Frc consts  --      1.4191                 1.4010                 1.0998
 IR Inten    --      9.9984                 7.2294                32.6119

                     43                     44                     45
                      A                      A                      A
 Frequencies --   1156.0096              1193.1008              1213.1082
 Red. masses --      2.8662                 2.5476                 1.1691
 Frc consts  --      2.2567                 2.1367                 1.0137
 IR Inten    --      9.3217                12.1463                 1.9581

                     46                     47                     48
                      A                      A                      A
 Frequencies --   1233.8955              1283.5776              1301.9666
 Red. masses --      1.7250                 1.2670                 1.7322
 Frc consts  --      1.5474                 1.2299                 1.7300
 IR Inten    --      5.1978                 7.3467                 1.1112

                     49                     50                     51
                      A                      A                      A
 Frequencies --   1343.6035              1365.4475              1398.1001
 Red. masses --      1.6443                 1.4095                 2.9498
 Frc consts  --      1.7489                 1.5484                 3.3972
 IR Inten    --     10.9722                16.5350                19.3394

                     52                     53                     54
                      A                      A                      A
 Frequencies --   1407.0628              1418.4594              1453.8258
 Red. masses --      1.5804                 2.3948                 1.3003
 Frc consts  --      1.8435                 2.8389                 1.6193
 IR Inten    --     14.0364                 6.6934                12.6496

                     55                     56                     57
                      A                      A                      A
 Frequencies --   1476.0571              1480.0065              1492.2040
 Red. masses --      2.5721                 1.1031                 2.8686
 Frc consts  --      3.3018                 1.4236                 3.7633
 IR Inten    --     13.2563                30.9768                32.7203

                     58                     59                     60
                      A                      A                      A
 Frequencies --   1511.3959              1552.4111              1581.6986
 Red. masses --      1.1962                 6.9723                 7.3012
 Frc consts  --      1.6099                 9.9001                10.7620
 IR Inten    --      4.8547                 9.5332                63.1391

                     61                     62                     63
                      A                      A                      A
 Frequencies --   1617.7340              1644.4558              3034.4568
 Red. masses --      5.2411                 4.9489                 1.0386
 Frc consts  --      8.0813                 7.8851                 5.6346
 IR Inten    --     92.0905                 2.8328                63.5714

                     64                     65                     66
                      A                      A                      A
 Frequencies --   3074.9034              3103.5038              3131.7383
 Red. masses --      1.0837                 1.0993                 1.0819
 Frc consts  --      6.0368                 6.2383                 6.2518
 IR Inten    --      7.5875                11.2155                 1.4804

                     67                     68                     69
                      A                      A                      A
 Frequencies --   3142.1421              3142.7719              3158.0933
 Red. masses --      1.0849                 1.0890                 1.0911
 Frc consts  --      6.3107                 6.3373                 6.4118
 IR Inten    --      5.0557                 4.3659                20.6511

                     70                     71                     72
                      A                      A                      A
 Frequencies --   3159.9440              3163.9491              3174.2475
 Red. masses --      1.1016                 1.0886                 1.0941
 Frc consts  --      6.4810                 6.4207                 6.4952
 IR Inten    --      4.5607                 6.1493                21.2086

 - Thermochemistry -
 -------------------
 Temperature   298.150 Kelvin.  Pressure   1.00000 Atm.
 Atom     1 has atomic number  6 and mass  12.00000

 Molecular mass:   250.03469 amu.
 Principal axes and moments of inertia in atomic units:
                           1         2         3
     Eigenvalues --  2131.157746401.431706810.15266
           X            0.99950   0.02279   0.02212
           Y           -0.02220   0.99939  -0.02680
           Z           -0.02272   0.02630   0.99940
 This molecule is an asymmetric top.
 Rotational symmetry number  1.
 Warning -- assumption of classical behavior for rotation
           may cause significant error
 Rotational temperatures (Kelvin)      0.04064     0.01353     0.01272
 Rotational constants (GHZ):           0.84684     0.28193     0.26501
 Zero-point vibrational energy     494443.5 (Joules/Mol)
                                  118.17483 (Kcal/Mol)
 Warning -- explicit consideration of  24 degrees of freedom as
           vibrations may cause significant error
 Vibrational temperatures:     45.60    83.59   107.81   140.77   174.96
          (Kelvin)            218.23   267.77   289.17   310.15   352.87
                              405.83   422.22   456.82   519.82   558.27
                              576.56   603.13   627.51   654.21   701.02
                              740.26   743.06   813.19   887.13   966.96
                              996.60  1038.90  1067.09  1084.72  1111.79
                             1208.35  1235.50  1248.39  1279.91  1303.63
                             1348.96  1369.19  1410.36  1452.89  1455.32
                             1543.91  1635.81  1663.24  1716.61  1745.39
                             1775.30  1846.78  1873.24  1933.15  1964.57
                             2011.55  2024.45  2040.85  2091.73  2123.72
                             2129.40  2146.95  2174.56  2233.57  2275.71
                             2327.56  2366.01  4365.91  4424.10  4465.25
                             4505.87  4520.84  4521.75  4543.79  4546.45
                             4552.22  4567.03

 Zero-point correction=                           0.188324 (Hartree/Particle)
 Thermal correction to Energy=                    0.203286
 Thermal correction to Enthalpy=                  0.204230
 Thermal correction to Gibbs Free Energy=         0.145667
 Sum of electronic and zero-point Energies=          -1402.128506
 Sum of electronic and thermal Energies=             -1402.113544
 Sum of electronic and thermal Enthalpies=           -1402.112600
 Sum of electronic and thermal Free Energies=        -1402.171162

                     E (Thermal)             CV                S
                      KCal/Mol        Cal/Mol-Kelvin    Cal/Mol-Kelvin
 Total                  127.564             56.742            123.255
 Electronic               0.000              0.000              0.000
 Translational            0.889              2.981             42.450
 Rotational               0.889              2.981             32.896
 Vibrational            125.786             50.780             47.909
 Vibration     1          0.594              1.983              5.720
 Vibration     2          0.596              1.974              4.521
 Vibration     3          0.599              1.966              4.019
 Vibration     4          0.603              1.951              3.497
 Vibration     5          0.609              1.931              3.075
 Vibration     6          0.619              1.901              2.651
 Vibration     7          0.632              1.859              2.266
 Vibration     8          0.638              1.838              2.124
 Vibration     9          0.645              1.817              1.996
 Vibration    10          0.660              1.771              1.764
 Vibration    11          0.681              1.707              1.521
 Vibration    12          0.688              1.686              1.454
 Vibration    13          0.704              1.640              1.323
 Vibration    14          0.735              1.552              1.117
 Vibration    15          0.756              1.496              1.008
 Vibration    16          0.767              1.469              0.960
 Vibration    17          0.782              1.429              0.895
 Vibration    18          0.797              1.391              0.839
 Vibration    19          0.813              1.351              0.782
 Vibration    20          0.843              1.278              0.691
 Vibration    21          0.870              1.218              0.623
 Vibration    22          0.871              1.214              0.618
 Vibration    23          0.921              1.107              0.514
 Vibration    24          0.976              0.997              0.422

 Optimization completed.
    -- Stationary point found.
 Normal termination of Gaussian 16 at Sat May 20 12:13:05 2023.
