 Gaussian 16, Revision A.03,
 Gaussian 16:  ES64L-G16RevA.03 25-Dec-2016

 -----------------------------
 # opt freq b3lyp/6-31g(2df,p)
 -----------------------------

 -------------------
 Title Card Required
 -------------------
 Symbolic Z-matrix:
 Charge =  0 Multiplicity = 1

 SCF Done:  E(RB3LYP) =  -801.145035638     A.U. after   31 cycles
 SCF Done:  E(RB3LYP) =  -801.196438014     A.U. after   35 cycles
 SCF Done:  E(RB3LYP) =  -801.390817656     A.U. after   32 cycles
 SCF Done:  E(RB3LYP) =  -801.571672801     A.U. after   38 cycles
 SCF Done:  E(RB3LYP) =  -801.883547138     A.U. after   21 cycles
 SCF Done:  E(RB3LYP) =  -801.896708820     A.U. after   22 cycles
 SCF Done:  E(RB3LYP) =  -802.159572131     A.U. after   22 cycles
 SCF Done:  E(RB3LYP) =  -802.028009175     A.U. after   21 cycles
 SCF Done:  E(RB3LYP) =  -802.271839372     A.U. after   18 cycles
 SCF Done:  E(RB3LYP) =  -802.357704753     A.U. after   16 cycles
 SCF Done:  E(RB3LYP) =  -802.674247318     A.U. after    8 cycles
 SCF Done:  E(RB3LYP) =  -802.674247600     A.U. after    7 cycles
 SCF Done:  E(RB3LYP) =  -802.674248023     A.U. after    8 cycles
 SCF Done:  E(RB3LYP) =  -802.674248501     A.U. after    8 cycles
 SCF Done:  E(RB3LYP) =  -802.674248854     A.U. after    8 cycles
 SCF Done:  E(RB3LYP) =  -802.674249203     A.U. after    8 cycles
 SCF Done:  E(RB3LYP) =  -802.674249548     A.U. after    8 cycles
 SCF Done:  E(RB3LYP) =  -802.674249862     A.U. after    8 cycles
 SCF Done:  E(RB3LYP) =  -802.674250055     A.U. after    8 cycles
 Optimization completed.
    -- Stationary point found.
 Normal termination of Gaussian 16 at Thu May 18 14:43:10 2023.

 ----------------------------------------------------------------------
 #N Geom=AllCheck Guess=TCheck SCRF=Check GenChk RB3LYP/6-31G(2df,p) Fr
 eq
 ----------------------------------------------------------------------

 Structure from the checkpoint file:  "Cn1cccccc2cc3ccccc3c-2cqdOr[nH]1.chk"
 -------------------
 Title Card Required
 -------------------
 Charge =  0 Multiplicity = 1

                         Standard orientation:
 ---------------------------------------------------------------------
 Center     Atomic      Atomic             Coordinates (Angstroms)
 Number     Number       Type             X           Y           Z
 ---------------------------------------------------------------------
      1          6           0        7.125757   -0.400266    0.791840
      2          7           0        6.232127   -0.507089   -0.360439
      3          6           0        5.019089    0.199616   -0.234420
      4          6           0        3.849623   -0.157522   -1.040098
      5          6           0        2.823523    0.416127   -0.139206
      6          6           0        1.451077   -0.112323   -0.148189
      7          6           0        0.360711    0.643244    0.053142
      8          6           0       -1.013098    0.182038    0.062873
      9          6           0       -1.521657   -1.085059    0.065507
     10          6           0       -2.975804   -1.054378    0.059815
     11          6           0       -3.926354   -2.072735    0.050414
     12          6           0       -5.277737   -1.727705    0.019541
     13          6           0       -5.681484   -0.390437    0.005415
     14          6           0       -4.737515    0.639638    0.032096
     15          6           0       -3.396112    0.297309    0.060741
     16          6           0       -2.172485    1.103579    0.137778
     17          6           0       -2.118649    2.518212    0.717368
     18          8           0       -2.116932    2.427897   -0.554891
     19          7           0        3.853375   -0.511318    0.422076
     20          1           0        7.383359    0.651920    0.951495
     21          1           0        8.052875   -0.939024    0.579128
     22          1           0        6.695741   -0.792504    1.725631
     23          1           0        5.162588    1.245927    0.044697
     24          1           0        3.737942   -0.890651   -1.829225
     25          1           0        2.915815    1.475182    0.115456
     26          1           0        1.359537   -1.180788   -0.330067
     27          1           0        0.502737    1.710455    0.213336
     28          1           0       -0.936277   -1.995383    0.086314
     29          1           0       -3.623172   -3.114588    0.063241
     30          1           0       -6.028523   -2.510877    0.003983
     31          1           0       -6.738339   -0.148819   -0.024149
     32          1           0       -5.050987    1.678250    0.023834
     33          1           0        6.050333   -1.479447   -0.583718
 ---------------------------------------------------------------------

 SCF Done:  E(RB3LYP) =  -802.674250055     A.U. after    1 cycles

 The electronic state is 1-A.
 Alpha  occ. eigenvalues --  -19.25245 -14.33922 -14.32982 -10.27927 -10.26426
 Alpha  occ. eigenvalues --  -10.25028 -10.23068 -10.22221 -10.20820 -10.20770
 Alpha  occ. eigenvalues --  -10.19848 -10.19846 -10.19797 -10.19738 -10.19667
 Alpha  occ. eigenvalues --  -10.19535 -10.19207 -10.19154 -10.19070  -1.17190
 Alpha  occ. eigenvalues --   -1.01413  -0.90785  -0.89035  -0.83373  -0.79543
 Alpha  occ. eigenvalues --   -0.76179  -0.73404  -0.70100  -0.69405  -0.66323
 Alpha  occ. eigenvalues --   -0.62421  -0.61877  -0.61196  -0.60036  -0.59215
 Alpha  occ. eigenvalues --   -0.57751  -0.55042  -0.52856  -0.50939  -0.50380
 Alpha  occ. eigenvalues --   -0.48301  -0.46607  -0.45498  -0.44500  -0.43810
 Alpha  occ. eigenvalues --   -0.43139  -0.42875  -0.42429  -0.41248  -0.41179
 Alpha  occ. eigenvalues --   -0.40586  -0.38160  -0.37797  -0.36910  -0.36496
 Alpha  occ. eigenvalues --   -0.35724  -0.35159  -0.33731  -0.33263  -0.29094
 Alpha  occ. eigenvalues --   -0.28325  -0.27759  -0.26503  -0.23524  -0.23116
 Alpha  occ. eigenvalues --   -0.20485
 Alpha virt. eigenvalues --   -0.06792  -0.05986  -0.01870   0.01527   0.05504
 Alpha virt. eigenvalues --    0.08632   0.09416   0.09611   0.09966   0.11160
 Alpha virt. eigenvalues --    0.12697   0.12907   0.13516   0.13789   0.14247

 Mulliken charges:
               1
     1  C   -0.324250
     2  N   -0.295771
     3  C    0.076058
     4  C   -0.171425
     5  C   -0.052255
     6  C   -0.062996
     7  C   -0.170635
     8  C    0.233683
     9  C   -0.379041
    10  C    0.246830
    11  C   -0.232632
    12  C   -0.105519
    13  C   -0.109506
    14  C   -0.258759
    15  C    0.235899
    16  C    0.134926
    17  C   -0.116489
    18  O   -0.092113
    19  N   -0.166501
    20  H    0.128202
    21  H    0.123314
    22  H    0.121077
    23  H    0.094847
    24  H    0.124179
    25  H    0.083011
    26  H    0.099310
    27  H    0.091031
    28  H    0.114990
    29  H    0.098028
    30  H    0.099331
    31  H    0.100692
    32  H    0.103715
    33  H    0.228770
 Sum of Mulliken charges =  -0.00000

 Dipole moment (field-independent basis, Debye):
    X=              0.6848    Y=             -1.7229    Z=             -0.9996  Tot=              2.1063
 Quadrupole moment (field-independent basis, Debye-Ang):
   XX=            -92.4973   YY=           -106.0079   ZZ=           -115.3952
   XY=              2.3900   XZ=              2.3833   YZ=              0.7466

  Exact polarizability: 363.212  15.830 188.729  -0.974   8.058  96.958
 Approx polarizability: 474.036  33.105 354.460  -5.682   8.902 172.773

                      1                      2                      3
                      A                      A                      A
 Frequencies --     20.1015                35.0835                47.8182
 Red. masses --      3.6500                 4.2506                 3.8489
 Frc consts  --      0.0009                 0.0031                 0.0052
 IR Inten    --      0.1097                 0.1149                 0.5016

                      4                      5                      6
                      A                      A                      A
 Frequencies --     72.2941               101.6913               114.1501
 Red. masses --      4.4096                 2.8759                 5.3244
 Frc consts  --      0.0136                 0.0175                 0.0409
 IR Inten    --      0.2776                 5.1516                 0.8691

                      7                      8                      9
                      A                      A                      A
 Frequencies --    128.2721               162.6688               182.1135
 Red. masses --      3.4330                 3.6561                 1.7156
 Frc consts  --      0.0333                 0.0570                 0.0335
 IR Inten    --      0.2476                 1.6810                 2.6051

                     10                     11                     12
                      A                      A                      A
 Frequencies --    189.1830               224.4427               243.6988
 Red. masses --      4.2351                 2.6422                 4.8931
 Frc consts  --      0.0893                 0.0784                 0.1712
 IR Inten    --      0.4529                 4.6901                 1.9599

                     13                     14                     15
                      A                      A                      A
 Frequencies --    265.4444               291.8828               300.2582
 Red. masses --      3.8881                 4.0650                 3.7954
 Frc consts  --      0.1614                 0.2040                 0.2016
 IR Inten    --      1.6395                 0.6849                17.3031

                     16                     17                     18
                      A                      A                      A
 Frequencies --    344.0340               387.5787               462.4620
 Red. masses --      4.8176                 4.2403                 3.7014
 Frc consts  --      0.3360                 0.3753                 0.4664
 IR Inten    --      0.4326                 0.6647                21.5946

                     19                     20                     21
                      A                      A                      A
 Frequencies --    470.6955               476.7921               493.1035
 Red. masses --      6.1963                 4.0421                 4.5071
 Frc consts  --      0.8088                 0.5414                 0.6457
 IR Inten    --      1.8619                 1.4801                 7.6332

                     22                     23                     24
                      A                      A                      A
 Frequencies --    530.2132               553.0066               576.7488
 Red. masses --      4.2714                 3.9722                 3.9253
 Frc consts  --      0.7075                 0.7157                 0.7693
 IR Inten    --     14.8999                 2.1360                 1.2466

                     25                     26                     27
                      A                      A                      A
 Frequencies --    631.6614               642.5768               652.6441
 Red. masses --      5.6449                 6.4165                 5.0170
 Frc consts  --      1.3270                 1.5610                 1.2591
 IR Inten    --      4.9151                 1.4991                12.9080

                     28                     29                     30
                      A                      A                      A
 Frequencies --    692.5623               727.4941               730.1046
 Red. masses --      3.2808                 2.4935                 5.8745
 Frc consts  --      0.9271                 0.7775                 1.8450
 IR Inten    --     22.6374               144.8117                47.2406

                     31                     32                     33
                      A                      A                      A
 Frequencies --    760.9708               772.5617               786.4007
 Red. masses --      2.7800                 1.6762                 3.3203
 Frc consts  --      0.9485                 0.5895                 1.2098
 IR Inten    --     35.1732                26.7483                26.0756

                     34                     35                     36
                      A                      A                      A
 Frequencies --    802.9055               852.9257               872.7566
 Red. masses --      4.2988                 1.9033                 1.8093
 Frc consts  --      1.6328                 0.8158                 0.8120
 IR Inten    --     25.1270                 1.1241                19.9118

                     37                     38                     39
                      A                      A                      A
 Frequencies --    882.3505               898.2253               906.3618
 Red. masses --      3.7559                 1.6211                 2.1893
 Frc consts  --      1.7229                 0.7706                 1.0597
 IR Inten    --      2.5195                13.0052                11.5243

                     40                     41                     42
                      A                      A                      A
 Frequencies --    928.6162               937.6907               971.8119
 Red. masses --      1.4418                 4.5441                 1.2512
 Frc consts  --      0.7325                 2.3541                 0.6962
 IR Inten    --      1.6753                10.9260                 0.0780

                     43                     44                     45
                      A                      A                      A
 Frequencies --   1003.9715              1006.4682              1025.5109
 Red. masses --      1.3093                 1.5031                 1.9178
 Frc consts  --      0.7776                 0.8971                 1.1883
 IR Inten    --     10.9270                14.7921                 8.2091

                     46                     47                     48
                      A                      A                      A
 Frequencies --   1032.4024              1043.0815              1062.9784
 Red. masses --      5.8640                 2.1106                 1.1768
 Frc consts  --      3.6825                 1.3530                 0.7834
 IR Inten    --     64.7093                 3.4909                 8.7997

                     49                     50                     51
                      A                      A                      A
 Frequencies --   1080.5905              1120.5444              1130.3065
 Red. masses --      1.5245                 1.8784                 2.1639
 Frc consts  --      1.0488                 1.3896                 1.6289
 IR Inten    --      7.3228                 8.7236                29.8726

                     52                     53                     54
                      A                      A                      A
 Frequencies --   1144.5771              1155.3312              1162.2031
 Red. masses --      1.5149                 1.7679                 1.7275
 Frc consts  --      1.1693                 1.3904                 1.3748
 IR Inten    --     12.0580                86.5521                 4.2543

                     55                     56                     57
                      A                      A                      A
 Frequencies --   1175.6549              1179.0564              1215.1657
 Red. masses --      1.9308                 1.2467                 1.7796
 Frc consts  --      1.5723                 1.0211                 1.5483
 IR Inten    --      7.0306                 3.0210                 9.5916

                     58                     59                     60
                      A                      A                      A
 Frequencies --   1233.8019              1247.5696              1261.0824
 Red. masses --      2.2224                 1.9386                 1.8650
 Frc consts  --      1.9932                 1.7778                 1.7475
 IR Inten    --      3.5794                21.0597                 9.3277

                     61                     62                     63
                      A                      A                      A
 Frequencies --   1291.0347              1310.7828              1321.3762
 Red. masses --      2.6204                 1.7166                 1.9263
 Frc consts  --      2.5733                 1.7377                 1.9817
 IR Inten    --     13.1952                22.3442                 2.6175

                     64                     65                     66
                      A                      A                      A
 Frequencies --   1335.1277              1352.8709              1393.3182
 Red. masses --      1.6266                 2.0235                 3.8526
 Frc consts  --      1.7084                 2.1821                 4.4067
 IR Inten    --      3.9173                 3.1239                21.0864

                     67                     68                     69
                      A                      A                      A
 Frequencies --   1398.5162              1436.3461              1461.1359
 Red. masses --      1.6516                 1.9699                 1.1692
 Frc consts  --      1.9033                 2.3945                 1.4707
 IR Inten    --     51.2535                11.9047                 4.2780

                     70                     71                     72
                      A                      A                      A
 Frequencies --   1470.4422              1489.3909              1496.9209
 Red. masses --      2.8855                 1.0558                 2.6488
 Frc consts  --      3.6759                 1.3799                 3.4970
 IR Inten    --     24.5215                24.1835                 8.3341

                     73                     74                     75
                      A                      A                      A
 Frequencies --   1511.2796              1520.9169              1542.9990
 Red. masses --      1.1098                10.0649                 1.4563
 Frc consts  --      1.4934                13.7173                 2.0428
 IR Inten    --      6.0185                34.7081               117.0389

                     76                     77                     78
                      A                      A                      A
 Frequencies --   1584.6397              1622.9648              1647.5551
 Red. masses --      5.9922                 6.1538                 6.8242
 Frc consts  --      8.8654                 9.5502                10.9139
 IR Inten    --      2.3591                 1.6745                13.0568

                     79                     80                     81
                      A                      A                      A
 Frequencies --   1700.2359              2991.4353              3068.1938
 Red. masses --      5.6338                 1.0488                 1.0869
 Frc consts  --      9.5955                 5.5295                 6.0287
 IR Inten    --     12.8181                69.0391                23.7832

                     82                     83                     84
                      A                      A                      A
 Frequencies --   3073.4987              3083.7372              3113.2565
 Red. masses --      1.0864                 1.0871                 1.1017
 Frc consts  --      6.0464                 6.0908                 6.2916
 IR Inten    --     29.1434                42.9699                28.2183

                     85                     86                     87
                      A                      A                      A
 Frequencies --   3141.3168              3157.4855              3171.3486
 Red. masses --      1.0884                 1.0872                 1.0846
 Frc consts  --      6.3278                 6.3864                 6.4270
 IR Inten    --      9.4857                11.2511                 2.6321

                     88                     89                     90
                      A                      A                      A
 Frequencies --   3179.2910              3187.8572              3190.3498
 Red. masses --      1.0879                 1.0930                 1.0958
 Frc consts  --      6.4789                 6.5442                 6.5714
 IR Inten    --      0.5515                20.4226                 8.6642

                     91                     92                     93
                      A                      A                      A
 Frequencies --   3199.7534              3213.6248              3539.0981
 Red. masses --      1.0970                 1.0937                 1.0734
 Frc consts  --      6.6175                 6.6547                 7.9216
 IR Inten    --     25.0203                 8.7203                 3.4580

 - Thermochemistry -
 -------------------
 Temperature   298.150 Kelvin.  Pressure   1.00000 Atm.
 Atom     1 has atomic number  6 and mass  12.00000

 Molecular mass:   250.11061 amu.
 Principal axes and moments of inertia in atomic units:
                           1         2         3
     Eigenvalues --  1452.55351********************
           X            0.99999   0.00271   0.00327
           Y           -0.00273   0.99998   0.00581
           Z           -0.00325  -0.00582   0.99998
 This molecule is an asymmetric top.
 Rotational symmetry number  1.
 Warning -- assumption of classical behavior for rotation
           may cause significant error
 Rotational temperatures (Kelvin)      0.05963     0.00602     0.00559
 Rotational constants (GHZ):           1.24246     0.12550     0.11638
 Zero-point vibrational energy     679495.4 (Joules/Mol)
                                  162.40329 (Kcal/Mol)
 Warning -- explicit consideration of  24 degrees of freedom as
           vibrations may cause significant error
 Vibrational temperatures:     28.92    50.48    68.80   104.02   146.31
          (Kelvin)            164.24   184.56   234.04   262.02   272.19
                              322.92   350.63   381.92   419.95   432.00
                              494.99   557.64   665.38   677.23   686.00
                              709.47   762.86   795.65   829.81   908.82
                              924.52   939.01   996.44  1046.70  1050.46
                             1094.87  1111.54  1131.46  1155.20  1227.17
                             1255.70  1269.51  1292.35  1304.05  1336.07
                             1349.13  1398.22  1444.49  1448.08  1475.48
                             1485.40  1500.76  1529.39  1554.73  1612.21
                             1626.26  1646.79  1662.26  1672.15  1691.51
                             1696.40  1748.35  1775.17  1794.97  1814.42
                             1857.51  1885.92  1901.17  1920.95  1946.48
                             2004.67  2012.15  2066.58  2102.25  2115.64
                             2142.90  2153.74  2174.39  2188.26  2220.03
                             2279.94  2335.08  2370.46  2446.26  4304.01
                             4414.45  4422.08  4436.81  4479.28  4519.65
                             4542.92  4562.86  4574.29  4586.62  4590.20
                             4603.73  4623.69  5091.97

 Zero-point correction=                           0.258806 (Hartree/Particle)
 Thermal correction to Energy=                    0.275541
 Thermal correction to Enthalpy=                  0.276485
 Thermal correction to Gibbs Free Energy=         0.212511
 Sum of electronic and zero-point Energies=           -802.415444
 Sum of electronic and thermal Energies=              -802.398709
 Sum of electronic and thermal Enthalpies=            -802.397765
 Sum of electronic and thermal Free Energies=         -802.461739

                     E (Thermal)             CV                S
                      KCal/Mol        Cal/Mol-Kelvin    Cal/Mol-Kelvin
 Total                  172.904             64.053            134.644
 Electronic               0.000              0.000              0.000
 Translational            0.889              2.981             42.451
 Rotational               0.889              2.981             34.137
 Vibrational            171.127             58.091             58.056
 Vibration     1          0.593              1.986              6.624
 Vibration     2          0.594              1.982              5.519
 Vibration     3          0.595              1.978              4.906
 Vibration     4          0.598              1.967              4.090
 Vibration     5          0.604              1.948              3.422
 Vibration     6          0.607              1.938              3.197
 Vibration     7          0.611              1.925              2.972
 Vibration     8          0.623              1.888              2.519
 Vibration     9          0.630              1.864              2.307
 Vibration    10          0.633              1.855              2.236
 Vibration    11          0.649              1.804              1.923
 Vibration    12          0.659              1.773              1.776
 Vibration    13          0.671              1.736              1.626
 Vibration    14          0.687              1.689              1.463
 Vibration    15          0.693              1.673              1.415
 Vibration    16          0.723              1.587              1.193
 Vibration    17          0.756              1.497              1.009
 Vibration    18          0.820              1.333              0.759
 Vibration    19          0.828              1.315              0.736
 Vibration    20          0.833              1.302              0.719
 Vibration    21          0.849              1.265              0.676
 Vibration    22          0.885              1.183              0.587
 Vibration    23          0.908              1.133              0.538
 Vibration    24          0.933              1.082              0.491

 Optimization completed.
    -- Stationary point found.
 Normal termination of Gaussian 16 at Thu May 18 18:11:00 2023.
