 Gaussian 16, Revision A.03,
 Gaussian 16:  ES64L-G16RevA.03 25-Dec-2016

 -----------------------------
 # opt freq b3lyp/6-31g(2df,p)
 -----------------------------

 -------------------
 Title Card Required
 -------------------
 Symbolic Z-matrix:
 Charge =  0 Multiplicity = 1

 SCF Done:  E(RB3LYP) =  -590.905888873     A.U. after   18 cycles
 SCF Done:  E(RB3LYP) =  -590.778922856     A.U. after   19 cycles
 SCF Done:  E(RB3LYP) =  -590.952516474     A.U. after   16 cycles
 SCF Done:  E(RB3LYP) =  -590.980881395     A.U. after   14 cycles
 SCF Done:  E(RB3LYP) =  -591.016820530     A.U. after   15 cycles
 SCF Done:  E(RB3LYP) =  -591.014415839     A.U. after   15 cycles
 SCF Done:  E(RB3LYP) =  -591.024991394     A.U. after   14 cycles
 SCF Done:  E(RB3LYP) =  -591.031078852     A.U. after   14 cycles
 SCF Done:  E(RB3LYP) =  -591.029723051     A.U. after   14 cycles
 SCF Done:  E(RB3LYP) =  -591.033681368     A.U. after   14 cycles
 SCF Done:  E(RB3LYP) =  -591.185639872     A.U. after    8 cycles
 SCF Done:  E(RB3LYP) =  -591.185652444     A.U. after    9 cycles
 SCF Done:  E(RB3LYP) =  -591.185660568     A.U. after    8 cycles
 SCF Done:  E(RB3LYP) =  -591.185668773     A.U. after    9 cycles
 SCF Done:  E(RB3LYP) =  -591.185678220     A.U. after    9 cycles
 SCF Done:  E(RB3LYP) =  -591.185684897     A.U. after    9 cycles
 SCF Done:  E(RB3LYP) =  -591.185687360     A.U. after    7 cycles
 SCF Done:  E(RB3LYP) =  -591.185688877     A.U. after    7 cycles
 SCF Done:  E(RB3LYP) =  -591.185689462     A.U. after    7 cycles
 Optimization completed.
    -- Stationary point found.
 Normal termination of Gaussian 16 at Thu May 18 06:31:13 2023.

 ----------------------------------------------------------------------
 #N Geom=AllCheck Guess=TCheck SCRF=Check GenChk RB3LYP/6-31G(2df,p) Fr
 eq
 ----------------------------------------------------------------------

 Structure from the checkpoint file:  "CN1CdCCdCC2dCCCCdNNdC21.chk"
 -------------------
 Title Card Required
 -------------------
 Charge =  0 Multiplicity = 1

                         Standard orientation:
 ---------------------------------------------------------------------
 Center     Atomic      Atomic             Coordinates (Angstroms)
 Number     Number       Type             X           Y           Z
 ---------------------------------------------------------------------
      1          6           0        1.066455    2.606084    0.399890
      2          7           0        1.218278    1.152110    0.322202
      3          6           0        2.482830    0.646691    0.562026
      4          6           0        3.048919   -0.520209    0.184097
      5          6           0        2.444306   -1.609619   -0.537095
      6          6           0        1.125171   -1.848581   -0.657593
      7          6           0        0.058835   -1.029784   -0.053772
      8          6           0       -0.956023   -1.638792    0.583616
      9          6           0       -2.200310   -1.109132    1.249793
     10          6           0       -2.745726    0.251263    0.752509
     11          6           0       -2.775735    0.285525   -0.749296
     12          7           0       -1.803180    0.638080   -1.499003
     13          7           0       -0.692386    1.173943   -0.913256
     14          6           0        0.149566    0.455055   -0.258365
     15          1           0        1.847170    3.006301    1.048952
     16          1           0        0.085483    2.856440    0.807094
     17          1           0        1.141547    3.069164   -0.589443
     18          1           0        3.098467    1.350049    1.111899
     19          1           0        4.089622   -0.638884    0.467042
     20          1           0        3.131045   -2.329036   -0.976487
     21          1           0        0.799917   -2.733680   -1.197359
     22          1           0       -0.870702   -2.723662    0.643638
     23          1           0       -2.047191   -1.062550    2.338433
     24          1           0       -2.982731   -1.865394    1.106667
     25          1           0       -2.122755    1.069318    1.124123
     26          1           0       -3.752430    0.390801    1.158592
     27          1           0       -3.666149   -0.068808   -1.267618
 ---------------------------------------------------------------------

 SCF Done:  E(RB3LYP) =  -591.185689462     A.U. after    1 cycles

 The electronic state is 1-A.
 Alpha  occ. eigenvalues --  -14.37326 -14.34509 -14.33428 -10.25650 -10.22220
 Alpha  occ. eigenvalues --  -10.21583 -10.21180 -10.19922 -10.19903 -10.19151
 Alpha  occ. eigenvalues --  -10.19101 -10.18338 -10.18077 -10.17408  -1.00204
 Alpha  occ. eigenvalues --   -0.95649  -0.83336  -0.82635  -0.79858  -0.74808
 Alpha  occ. eigenvalues --   -0.72482  -0.71131  -0.65878  -0.64798  -0.58486
 Alpha  occ. eigenvalues --   -0.58195  -0.55247  -0.51021  -0.50083  -0.48064
 Alpha  occ. eigenvalues --   -0.46645  -0.45771  -0.45187  -0.44448  -0.43328
 Alpha  occ. eigenvalues --   -0.42204  -0.40678  -0.40034  -0.38424  -0.37394
 Alpha  occ. eigenvalues --   -0.36003  -0.35767  -0.33968  -0.33251  -0.31027
 Alpha  occ. eigenvalues --   -0.28905  -0.27049  -0.23925  -0.22510  -0.18355
 Alpha virt. eigenvalues --   -0.02993  -0.00500   0.01217   0.04888   0.08601
 Alpha virt. eigenvalues --    0.09587   0.09643   0.10680   0.12884   0.13934
 Alpha virt. eigenvalues --    0.14405   0.15905   0.16638   0.17147   0.17573

 Mulliken charges:
               1
     1  C   -0.327743
     2  N   -0.118009
     3  C    0.004834
     4  C   -0.153442
     5  C   -0.073277
     6  C   -0.198242
     7  C    0.173590
     8  C   -0.109722
     9  C   -0.262462
    10  C   -0.279245
    11  C    0.030152
    12  N   -0.127843
    13  N   -0.291378
    14  C    0.275411
    15  H    0.121522
    16  H    0.140371
    17  H    0.147573
    18  H    0.109604
    19  H    0.089757
    20  H    0.093282
    21  H    0.101110
    22  H    0.088317
    23  H    0.118404
    24  H    0.113953
    25  H    0.125006
    26  H    0.102312
    27  H    0.106166
 Sum of Mulliken charges =  -0.00000

 Dipole moment (field-independent basis, Debye):
    X=              0.1482    Y=             -0.3842    Z=              2.8371  Tot=              2.8668
 Quadrupole moment (field-independent basis, Debye-Ang):
   XX=            -73.0789   YY=            -77.1850   ZZ=            -86.5786
   XY=              4.7210   XZ=             -3.2198   YZ=              4.7791

  Exact polarizability: 191.118   3.247 137.254  -0.835   5.416  95.623
 Approx polarizability: 297.992  10.858 225.054   0.248   5.202 164.926

                      1                      2                      3
                      A                      A                      A
 Frequencies --     56.1249                88.7306               122.5858
 Red. masses --      3.5626                 3.2250                 3.4778
 Frc consts  --      0.0066                 0.0150                 0.0308
 IR Inten    --      1.8518                 1.1339                 2.6854

                      4                      5                      6
                      A                      A                      A
 Frequencies --    159.0701               189.6306               200.0616
 Red. masses --      2.1396                 1.3017                 3.4016
 Frc consts  --      0.0319                 0.0276                 0.0802
 IR Inten    --      0.7499                 0.2422                 1.1170

                      7                      8                      9
                      A                      A                      A
 Frequencies --    247.4179               255.6343               324.1402
 Red. masses --      3.6448                 4.4480                 3.5589
 Frc consts  --      0.1315                 0.1713                 0.2203
 IR Inten    --      0.8388                 2.2841                 0.2285

                     10                     11                     12
                      A                      A                      A
 Frequencies --    348.9453               376.5136               393.9262
 Red. masses --      3.3163                 3.8579                 3.3649
 Frc consts  --      0.2379                 0.3222                 0.3076
 IR Inten    --      7.4416                 2.2388                 6.9576

                     13                     14                     15
                      A                      A                      A
 Frequencies --    405.8906               469.2691               512.9361
 Red. masses --      3.7602                 4.0569                 3.9980
 Frc consts  --      0.3650                 0.5264                 0.6197
 IR Inten    --      1.2984                 1.6636                 1.1633

                     16                     17                     18
                      A                      A                      A
 Frequencies --    558.2072               585.5090               622.1579
 Red. masses --      4.3198                 3.7120                 4.5377
 Frc consts  --      0.7931                 0.7498                 1.0349
 IR Inten    --      2.7972                 4.9296                 0.3896

                     19                     20                     21
                      A                      A                      A
 Frequencies --    638.1612               701.4297               712.2936
 Red. masses --      3.2534                 2.4725                 2.4105
 Frc consts  --      0.7806                 0.7167                 0.7206
 IR Inten    --      5.3809                 8.3070                 7.8610

                     22                     23                     24
                      A                      A                      A
 Frequencies --    744.1212               754.8928               787.9531
 Red. masses --      3.5450                 2.8998                 1.5632
 Frc consts  --      1.1565                 0.9736                 0.5718
 IR Inten    --     21.3520                 7.9452                12.6605

                     25                     26                     27
                      A                      A                      A
 Frequencies --    835.6672               867.0245               871.9678
 Red. masses --      1.5397                 3.3750                 2.3312
 Frc consts  --      0.6335                 1.4948                 1.0443
 IR Inten    --     11.8715                 1.3093                 0.3710

                     28                     29                     30
                      A                      A                      A
 Frequencies --    915.4593               925.0693               941.7851
 Red. masses --      1.7974                 1.9745                 1.2984
 Frc consts  --      0.8875                 0.9955                 0.6785
 IR Inten    --      5.3098                 6.6499                 1.4319

                     31                     32                     33
                      A                      A                      A
 Frequencies --    947.3078               975.7253               980.5041
 Red. masses --      2.9531                 2.1874                 1.4023
 Frc consts  --      1.5614                 1.2270                 0.7943
 IR Inten    --      5.6261                 7.0871                 0.7195

                     34                     35                     36
                      A                      A                      A
 Frequencies --   1030.9938              1035.1091              1073.2515
 Red. masses --      3.3288                 3.4148                 2.6084
 Frc consts  --      2.0847                 2.1557                 1.7702
 IR Inten    --     11.7496                25.6863                 9.6621

                     37                     38                     39
                      A                      A                      A
 Frequencies --   1083.9984              1121.2126              1147.9812
 Red. masses --      1.8768                 1.9461                 1.5957
 Frc consts  --      1.2993                 1.4414                 1.2390
 IR Inten    --      3.5462                39.1910                 0.0793

                     40                     41                     42
                      A                      A                      A
 Frequencies --   1152.7884              1215.4872              1225.4080
 Red. masses --      1.9230                 1.2635                 1.3427
 Frc consts  --      1.5057                 1.0999                 1.1880
 IR Inten    --     17.2861                 1.8247                 6.0615

                     43                     44                     45
                      A                      A                      A
 Frequencies --   1255.2088              1260.6089              1276.4939
 Red. masses --      1.3415                 1.4179                 2.4081
 Frc consts  --      1.2453                 1.3276                 2.3118
 IR Inten    --      6.1342                 4.5254                63.0372

                     46                     47                     48
                      A                      A                      A
 Frequencies --   1338.4480              1371.0653              1389.1407
 Red. masses --      1.3078                 1.3293                 1.4626
 Frc consts  --      1.3804                 1.4723                 1.6629
 IR Inten    --      1.1893                 6.1804                 9.2206

                     49                     50                     51
                      A                      A                      A
 Frequencies --   1391.4410              1405.9535              1419.4922
 Red. masses --      1.4262                 1.9637                 1.4060
 Frc consts  --      1.6268                 2.2870                 1.6692
 IR Inten    --     13.0709               102.0462                33.5856

                     52                     53                     54
                      A                      A                      A
 Frequencies --   1456.0332              1468.3388              1472.2859
 Red. masses --      1.3894                 1.0472                 1.0842
 Frc consts  --      1.7354                 1.3303                 1.3847
 IR Inten    --     20.8274                 9.3789                 2.8345

                     55                     56                     57
                      A                      A                      A
 Frequencies --   1487.3782              1496.0232              1514.8967
 Red. masses --      1.1087                 1.5315                 1.1292
 Frc consts  --      1.4452                 2.0195                 1.5268
 IR Inten    --      7.3709                 1.4248                33.5638

                     58                     59                     60
                      A                      A                      A
 Frequencies --   1633.1838              1639.2416              1679.8051
 Red. masses --     10.1292                 8.3777                 6.1914
 Frc consts  --     15.9183                13.2636                10.2933
 IR Inten    --    103.0321                89.6758                61.8920

                     61                     62                     63
                      A                      A                      A
 Frequencies --   1685.3154              1699.7208              2997.6444
 Red. masses --      8.9726                 6.4892                 1.0667
 Frc consts  --     15.0152                11.0457                 5.6473
 IR Inten    --      7.9963                23.9918                35.3583

                     64                     65                     66
                      A                      A                      A
 Frequencies --   3033.7263              3042.6550              3052.9649
 Red. masses --      1.0924                 1.0363                 1.0605
 Frc consts  --      5.9238                 5.6525                 5.8240
 IR Inten    --     17.2012                43.2684                35.3286

                     67                     68                     69
                      A                      A                      A
 Frequencies --   3099.3229              3110.2236              3124.1626
 Red. masses --      1.1014                 1.0983                 1.0868
 Frc consts  --      6.2337                 6.2597                 6.2500
 IR Inten    --      7.8657                14.7868                14.5822

                     70                     71                     72
                      A                      A                      A
 Frequencies --   3135.7152              3142.3945              3146.3848
 Red. masses --      1.0900                 1.1042                 1.0827
 Frc consts  --      6.3145                 6.4243                 6.3150
 IR Inten    --     32.7777                12.9835                 4.4416

                     73                     74                     75
                      A                      A                      A
 Frequencies --   3166.1210              3174.4521              3192.4597
 Red. masses --      1.0901                 1.0880                 1.0930
 Frc consts  --      6.4386                 6.4600                 6.5631
 IR Inten    --     14.3331                10.9623                25.9077

 - Thermochemistry -
 -------------------
 Temperature   298.150 Kelvin.  Pressure   1.00000 Atm.
 Atom     1 has atomic number  6 and mass  12.00000

 Molecular mass:   187.11095 amu.
 Principal axes and moments of inertia in atomic units:
                           1         2         3
     Eigenvalues --  1565.522512904.090573658.83914
           X            0.99967   0.02180  -0.01336
           Y           -0.02143   0.99941   0.02697
           Z            0.01394  -0.02667   0.99955
 This molecule is an asymmetric top.
 Rotational symmetry number  1.
 Warning -- assumption of classical behavior for rotation
           may cause significant error
 Rotational temperatures (Kelvin)      0.05533     0.02982     0.02367
 Rotational constants (GHZ):           1.15280     0.62145     0.49326
 Zero-point vibrational energy     588327.3 (Joules/Mol)
                                  140.61360 (Kcal/Mol)
 Warning -- explicit consideration of  17 degrees of freedom as
           vibrations may cause significant error
 Vibrational temperatures:     80.75   127.66   176.37   228.87   272.84
          (Kelvin)            287.84   355.98   367.80   466.37   502.05
                              541.72   566.77   583.99   675.17   738.00
                              803.14   842.42   895.15   918.17  1009.20
                             1024.83  1070.62  1086.12  1133.69  1202.34
                             1247.45  1254.57  1317.14  1330.97  1355.02
                             1362.96  1403.85  1410.73  1483.37  1489.29
                             1544.17  1559.63  1613.17  1651.69  1658.61
                             1748.81  1763.09  1805.97  1813.73  1836.59
                             1925.73  1972.66  1998.66  2001.97  2022.85
                             2042.33  2094.91  2112.61  2118.29  2140.01
                             2152.44  2179.60  2349.79  2358.50  2416.86
                             2424.79  2445.52  4312.94  4364.86  4377.70
                             4392.54  4459.23  4474.92  4494.97  4511.59
                             4521.20  4526.95  4555.34  4567.33  4593.24

 Zero-point correction=                           0.224082 (Hartree/Particle)
 Thermal correction to Energy=                    0.236024
 Thermal correction to Enthalpy=                  0.236968
 Thermal correction to Gibbs Free Energy=         0.186393
 Sum of electronic and zero-point Energies=           -590.961607
 Sum of electronic and thermal Energies=              -590.949665
 Sum of electronic and thermal Enthalpies=            -590.948721
 Sum of electronic and thermal Free Energies=         -590.999296

                     E (Thermal)             CV                S
                      KCal/Mol        Cal/Mol-Kelvin    Cal/Mol-Kelvin
 Total                  148.107             47.613            106.444
 Electronic               0.000              0.000              0.000
 Translational            0.889              2.981             41.586
 Rotational               0.889              2.981             31.187
 Vibrational            146.330             41.651             33.671
 Vibration     1          0.596              1.975              4.589
 Vibration     2          0.602              1.957              3.688
 Vibration     3          0.610              1.930              3.059
 Vibration     4          0.621              1.892              2.561
 Vibration     5          0.633              1.854              2.231
 Vibration     6          0.638              1.840              2.133
 Vibration     7          0.661              1.767              1.749
 Vibration     8          0.666              1.753              1.691
 Vibration     9          0.709              1.627              1.289
 Vibration    10          0.726              1.577              1.171
 Vibration    11          0.747              1.520              1.053
 Vibration    12          0.761              1.483              0.985
 Vibration    13          0.771              1.457              0.941
 Vibration    14          0.826              1.318              0.740
 Vibration    15          0.868              1.221              0.627
 Vibration    16          0.914              1.122              0.527
 Vibration    17          0.943              1.063              0.475

 Optimization completed.
    -- Stationary point found.
 Normal termination of Gaussian 16 at Thu May 18 08:17:15 2023.
