 Gaussian 16, Revision A.03,
 Gaussian 16:  ES64L-G16RevA.03 25-Dec-2016

 -----------------------------
 # opt freq b3lyp/6-31g(2df,p)
 -----------------------------

 -------------------
 Title Card Required
 -------------------
 Symbolic Z-matrix:
 Charge =  0 Multiplicity = 1

 SCF Done:  E(RB3LYP) =  -626.006961175     A.U. after   24 cycles
 SCF Done:  E(RB3LYP) =  -626.132063471     A.U. after   17 cycles
 SCF Done:  E(RB3LYP) =  -626.310963267     A.U. after   16 cycles
 SCF Done:  E(RB3LYP) =  -626.422679796     A.U. after   17 cycles
 SCF Done:  E(RB3LYP) =  -626.518408328     A.U. after   16 cycles
 SCF Done:  E(RB3LYP) =  -626.589998925     A.U. after   15 cycles
 SCF Done:  E(RB3LYP) =  -626.647614566     A.U. after   16 cycles
 SCF Done:  E(RB3LYP) =  -626.676954297     A.U. after   16 cycles
 SCF Done:  E(RB3LYP) =  -626.695138478     A.U. after   15 cycles
 SCF Done:  E(RB3LYP) =  -626.701680781     A.U. after   15 cycles
 SCF Done:  E(RB3LYP) =  -626.709156013     A.U. after   14 cycles
 SCF Done:  E(RB3LYP) =  -626.709154658     A.U. after   12 cycles
 SCF Done:  E(RB3LYP) =  -626.709167671     A.U. after   13 cycles
 SCF Done:  E(RB3LYP) =  -626.709173201     A.U. after   11 cycles
 SCF Done:  E(RB3LYP) =  -626.709172959     A.U. after   10 cycles
 SCF Done:  E(RB3LYP) =  -626.709178042     A.U. after   11 cycles
 SCF Done:  E(RB3LYP) =  -626.709178104     A.U. after   10 cycles
 SCF Done:  E(RB3LYP) =  -626.709178478     A.U. after   10 cycles
 SCF Done:  E(RB3LYP) =  -626.709178724     A.U. after    9 cycles
 Optimization completed.
    -- Stationary point found.
 Normal termination of Gaussian 16 at Wed May 17 22:26:29 2023.

 ----------------------------------------------------------------------
 #N Geom=AllCheck Guess=TCheck SCRF=Check GenChk RB3LYP/6-31G(2df,p) Fr
 eq
 ----------------------------------------------------------------------

 Structure from the checkpoint file:  "CNc1ccc2cqc3cnnc1-3rCdCdC2.chk"
 -------------------
 Title Card Required
 -------------------
 Charge =  0 Multiplicity = 1

                         Standard orientation:
 ---------------------------------------------------------------------
 Center     Atomic      Atomic             Coordinates (Angstroms)
 Number     Number       Type             X           Y           Z
 ---------------------------------------------------------------------
      1          6           0       -3.790724   -0.722176    0.550426
      2          7           0       -2.637205   -1.374116   -0.063401
      3          6           0       -1.454504   -0.843711   -0.321858
      4          6           0       -0.304278   -1.618266   -0.825667
      5          6           0        0.606065   -1.918173    0.136250
      6          6           0        1.846697   -1.175069    0.018003
      7          6           0        1.637448    0.293871   -0.262203
      8          6           0        0.365167    0.968729   -0.153884
      9          6           0        0.167534    2.347841   -0.010195
     10          7           0       -1.142454    2.663957    0.096052
     11          7           0       -1.865044    1.555123    0.008722
     12          6           0       -1.023850    0.492012   -0.126819
     13          6           0        2.899417    0.955028   -0.170454
     14          6           0        3.622388    0.011087    0.518539
     15          6           0        3.165151   -1.338003    0.348297
     16          1           0       -4.088277   -1.271080    1.449171
     17          1           0       -4.627612   -0.716231   -0.154692
     18          1           0       -3.526192    0.307173    0.788301
     19          1           0       -2.738319   -2.345662   -0.321298
     20          1           0        0.096884   -1.214261   -1.752706
     21          1           0        0.295577   -2.297472    1.109279
     22          1           0        0.916896    3.122688    0.064669
     23          1           0        3.036562    2.025916   -0.179243
     24          1           0        3.728335   -2.244829    0.504303
 ---------------------------------------------------------------------

 SCF Done:  E(RB3LYP) =  -626.709178724     A.U. after    1 cycles

 The electronic state is 1-A.
 Alpha  occ. eigenvalues --  -14.41555 -14.33456 -14.32849 -10.29057 -10.23937
 Alpha  occ. eigenvalues --  -10.22907 -10.22182 -10.21326 -10.21292 -10.20842
 Alpha  occ. eigenvalues --  -10.20618 -10.19942 -10.19873 -10.19453 -10.18532
 Alpha  occ. eigenvalues --   -1.00980  -0.99268  -0.89184  -0.84267  -0.78165
 Alpha  occ. eigenvalues --   -0.77767  -0.75155  -0.71038  -0.69680  -0.64273
 Alpha  occ. eigenvalues --   -0.62264  -0.58048  -0.55724  -0.54273  -0.53461
 Alpha  occ. eigenvalues --   -0.52397  -0.49450  -0.48364  -0.47789  -0.44252
 Alpha  occ. eigenvalues --   -0.43272  -0.42151  -0.41834  -0.40981  -0.40035
 Alpha  occ. eigenvalues --   -0.39502  -0.36530  -0.35859  -0.35261  -0.29881
 Alpha  occ. eigenvalues --   -0.27403  -0.26583  -0.24062  -0.23009  -0.21916
 Alpha  occ. eigenvalues --   -0.19732
 Alpha virt. eigenvalues --   -0.11265  -0.07634  -0.04345   0.02723   0.05349
 Alpha virt. eigenvalues --    0.06446   0.07369   0.10986   0.11516   0.12177
 Alpha virt. eigenvalues --    0.13248   0.13813   0.14479   0.14874   0.16637

 Mulliken charges:
               1
     1  C   -0.352395
     2  N   -0.351314
     3  C    0.304353
     4  C   -0.278165
     5  C   -0.185204
     6  C    0.239051
     7  C    0.078874
     8  C    0.136391
     9  C   -0.096217
    10  N   -0.212001
    11  N   -0.319472
    12  C    0.238812
    13  C   -0.255909
    14  C   -0.062801
    15  C   -0.261791
    16  H    0.138532
    17  H    0.149447
    18  H    0.214960
    19  H    0.267801
    20  H    0.133777
    21  H    0.117974
    22  H    0.114512
    23  H    0.117623
    24  H    0.123166
 Sum of Mulliken charges =  -0.00000

 Dipole moment (field-independent basis, Debye):
    X=             -2.4474    Y=             -5.7770    Z=             -0.1913  Tot=              6.2769
 Quadrupole moment (field-independent basis, Debye-Ang):
   XX=            -78.9817   YY=            -86.4294   ZZ=            -86.3213
   XY=             13.9087   XZ=             -2.7573   YZ=             -2.1203

  Exact polarizability: 262.235   3.464 165.778  12.783  -1.544  78.685
 Approx polarizability: 633.530 -12.494 339.664  74.190  -1.454 151.804

                      1                      2                      3
                      A                      A                      A
 Frequencies --     48.1873                62.3883               113.2998
 Red. masses --      3.9564                 1.0612                 5.0641
 Frc consts  --      0.0054                 0.0024                 0.0383
 IR Inten    --      1.9443                 0.4762                 3.1319

                      4                      5                      6
                      A                      A                      A
 Frequencies --    153.1109               175.3078               214.9047
 Red. masses --      5.3154                 3.9046                 3.6870
 Frc consts  --      0.0734                 0.0707                 0.1003
 IR Inten    --      3.5863                 2.9756                 5.5282

                      7                      8                      9
                      A                      A                      A
 Frequencies --    230.1833               257.8661               295.3728
 Red. masses --      3.3763                 4.9141                 4.8373
 Frc consts  --      0.1054                 0.1925                 0.2487
 IR Inten    --      1.6811                 5.0253                 7.6148

                     10                     11                     12
                      A                      A                      A
 Frequencies --    341.8786               351.3824               407.1370
 Red. masses --      3.8235                 6.1896                 5.8481
 Frc consts  --      0.2633                 0.4503                 0.5711
 IR Inten    --     13.7218                77.6940                18.1236

                     13                     14                     15
                      A                      A                      A
 Frequencies --    460.6279               490.9133               551.3140
 Red. masses --      3.7787                 4.7597                 4.7230
 Frc consts  --      0.4724                 0.6758                 0.8458
 IR Inten    --      3.7437                31.3307                23.7445

                     16                     17                     18
                      A                      A                      A
 Frequencies --    599.3328               615.0368               636.0162
 Red. masses --      6.2685                 3.7739                 3.7986
 Frc consts  --      1.3266                 0.8411                 0.9053
 IR Inten    --    155.3271                35.9421                65.2220

                     19                     20                     21
                      A                      A                      A
 Frequencies --    647.1828               654.6749               667.3033
 Red. masses --      3.5660                 2.8481                 1.6935
 Frc consts  --      0.8800                 0.7192                 0.4443
 IR Inten    --     39.6077                32.7857                49.9855

                     22                     23                     24
                      A                      A                      A
 Frequencies --    704.2338               738.5657               766.2043
 Red. masses --      4.6222                 2.9089                 3.3423
 Frc consts  --      1.3506                 0.9349                 1.1561
 IR Inten    --     69.6609                 0.3752                 2.9990

                     25                     26                     27
                      A                      A                      A
 Frequencies --    775.6748               794.7037               820.0279
 Red. masses --      2.6582                 1.3551                 3.1064
 Frc consts  --      0.9423                 0.5042                 1.2307
 IR Inten    --     44.2665                79.5122                36.2002

                     28                     29                     30
                      A                      A                      A
 Frequencies --    871.0672               928.1148               936.1200
 Red. masses --      1.5600                 4.3806                 5.6431
 Frc consts  --      0.6974                 2.2233                 2.9136
 IR Inten    --      6.8480                43.9831                83.0984

                     31                     32                     33
                      A                      A                      A
 Frequencies --   1001.5842              1023.8155              1035.9928
 Red. masses --      2.4328                 1.8838                 1.5389
 Frc consts  --      1.4379                 1.1634                 0.9731
 IR Inten    --     59.8726                 3.0615                62.6872

                     34                     35                     36
                      A                      A                      A
 Frequencies --   1080.4705              1116.9437              1135.9449
 Red. masses --      5.6258                 3.6604                 3.1455
 Frc consts  --      3.8696                 2.6906                 2.3914
 IR Inten    --     58.3971                38.3200                18.0722

                     37                     38                     39
                      A                      A                      A
 Frequencies --   1151.5282              1156.8026              1161.1772
 Red. masses --      1.3974                 1.8565                 6.9355
 Frc consts  --      1.0918                 1.4637                 5.5097
 IR Inten    --      8.4783                67.6303               106.8851

                     40                     41                     42
                      A                      A                      A
 Frequencies --   1190.4713              1219.6119              1247.5489
 Red. masses --      1.4145                 1.9921                 2.3474
 Frc consts  --      1.1811                 1.7459                 2.1526
 IR Inten    --     12.5103                22.6933                16.8689

                     43                     44                     45
                      A                      A                      A
 Frequencies --   1270.2966              1284.4568              1303.9024
 Red. masses --      2.2549                 1.9734                 6.6478
 Frc consts  --      2.1438                 1.9182                 6.6591
 IR Inten    --      1.9378                14.4611                 2.7240

                     46                     47                     48
                      A                      A                      A
 Frequencies --   1336.0313              1369.5175              1380.3179
 Red. masses --      1.3649                 2.5656                 4.1024
 Frc consts  --      1.4354                 2.8352                 4.6052
 IR Inten    --      2.4324                 9.4379                31.6439

                     49                     50                     51
                      A                      A                      A
 Frequencies --   1415.2839              1450.1277              1479.1242
 Red. masses --      6.6978                 1.2749                 1.5896
 Frc consts  --      7.9044                 1.5796                 2.0491
 IR Inten    --      7.0516                64.3525                83.8930

                     52                     53                     54
                      A                      A                      A
 Frequencies --   1487.1756              1500.8329              1533.0361
 Red. masses --      1.9705                 1.0898                 7.2350
 Frc consts  --      2.5678                 1.4463                10.0183
 IR Inten    --     23.9233                15.6605                 8.5575

                     55                     56                     57
                      A                      A                      A
 Frequencies --   1542.5977              1566.9071              1646.8912
 Red. masses --      1.9330                 4.7072                 4.6135
 Frc consts  --      2.7101                 6.8093                 7.3724
 IR Inten    --    137.5271                93.0247               503.7679

                     58                     59                     60
                      A                      A                      A
 Frequencies --   3039.8675              3104.8826              3125.4422
 Red. masses --      1.0345                 1.1041                 1.0887
 Frc consts  --      5.6322                 6.2714                 6.2658
 IR Inten    --     64.7630                12.9775                 9.8259

                     61                     62                     63
                      A                      A                      A
 Frequencies --   3136.7609              3166.9842              3235.5605
 Red. masses --      1.0851                 1.1031                 1.0945
 Frc consts  --      6.2905                 6.5185                 6.7507
 IR Inten    --      5.6631                11.0928                 1.7604

                     64                     65                     66
                      A                      A                      A
 Frequencies --   3242.9034              3252.6623              3601.1016
 Red. masses --      1.0938                 1.0947                 1.0763
 Frc consts  --      6.7773                 6.8237                 8.2236
 IR Inten    --      6.1239                10.1695                89.7446

 - Thermochemistry -
 -------------------
 Temperature   298.150 Kelvin.  Pressure   1.00000 Atm.
 Atom     1 has atomic number  6 and mass  12.00000

 Molecular mass:   195.07965 amu.
 Principal axes and moments of inertia in atomic units:
                           1         2         3
     Eigenvalues --  1574.194493371.317074750.93204
           X            0.99961   0.02728  -0.00636
           Y           -0.02732   0.99960  -0.00660
           Z            0.00618   0.00678   0.99996
 This molecule is an asymmetric top.
 Rotational symmetry number  1.
 Warning -- assumption of classical behavior for rotation
           may cause significant error
 Rotational temperatures (Kelvin)      0.05502     0.02569     0.01823
 Rotational constants (GHZ):           1.14645     0.53532     0.37987
 Zero-point vibrational energy     474335.4 (Joules/Mol)
                                  113.36889 (Kcal/Mol)
 Warning -- explicit consideration of  17 degrees of freedom as
           vibrations may cause significant error
 Vibrational temperatures:     69.33    89.76   163.01   220.29   252.23
          (Kelvin)            309.20   331.18   371.01   424.98   491.89
                              505.56   585.78   662.74   706.31   793.22
                              862.31   884.90   915.09   931.15   941.93
                              960.10  1013.24  1062.63  1102.40  1116.02
                             1143.40  1179.84  1253.27  1335.35  1346.87
                             1441.06  1473.04  1490.56  1554.56  1607.03
                             1634.37  1656.79  1664.38  1670.68  1712.82
                             1754.75  1794.94  1827.67  1848.05  1876.02
                             1922.25  1970.43  1985.97  2036.28  2086.41
                             2128.13  2139.71  2159.36  2205.70  2219.45
                             2254.43  2369.51  4373.69  4467.23  4496.81
                             4513.10  4556.58  4655.25  4665.81  4679.86
                             5181.18

 Zero-point correction=                           0.180665 (Hartree/Particle)
 Thermal correction to Energy=                    0.192680
 Thermal correction to Enthalpy=                  0.193624
 Thermal correction to Gibbs Free Energy=         0.142199
 Sum of electronic and zero-point Energies=           -626.528514
 Sum of electronic and thermal Energies=              -626.516499
 Sum of electronic and thermal Enthalpies=            -626.515554
 Sum of electronic and thermal Free Energies=         -626.566980

                     E (Thermal)             CV                S
                      KCal/Mol        Cal/Mol-Kelvin    Cal/Mol-Kelvin
 Total                  120.909             47.128            108.234
 Electronic               0.000              0.000              0.000
 Translational            0.889              2.981             41.710
 Rotational               0.889              2.981             31.600
 Vibrational            119.131             41.167             34.923
 Vibration     1          0.595              1.978              4.890
 Vibration     2          0.597              1.972              4.380
 Vibration     3          0.607              1.938              3.212
 Vibration     4          0.619              1.899              2.633
 Vibration     5          0.627              1.873              2.378
 Vibration     6          0.645              1.818              2.002
 Vibration     7          0.652              1.795              1.878
 Vibration     8          0.667              1.749              1.676
 Vibration     9          0.690              1.682              1.443
 Vibration    10          0.721              1.592              1.203
 Vibration    11          0.728              1.572              1.160
 Vibration    12          0.772              1.455              0.937
 Vibration    13          0.818              1.337              0.764
 Vibration    14          0.847              1.270              0.681
 Vibration    15          0.907              1.137              0.541
 Vibration    16          0.957              1.033              0.451
 Vibration    17          0.975              1.000              0.425

                           ! Non-Optimized Parameters !
 Normal termination of Gaussian 16 at Thu May 18 00:05:34 2023.
