 Gaussian 16, Revision A.03,
 Gaussian 16:  ES64L-G16RevA.03 25-Dec-2016

 -----------------------------
 # opt freq b3lyp/6-31g(2df,p)
 -----------------------------

 -------------------
 Title Card Required
 -------------------
 Symbolic Z-matrix:
 Charge =  0 Multiplicity = 1

 SCF Done:  E(RB3LYP) =  -1104.59774693     A.U. after   31 cycles
 SCF Done:  E(RB3LYP) =  -1104.66134325     A.U. after   16 cycles
 SCF Done:  E(RB3LYP) =  -1104.70115108     A.U. after   18 cycles
 SCF Done:  E(RB3LYP) =  -1104.75309830     A.U. after   15 cycles
 SCF Done:  E(RB3LYP) =  -1104.81410678     A.U. after   15 cycles
 SCF Done:  E(RB3LYP) =  -1104.84306221     A.U. after   14 cycles
 SCF Done:  E(RB3LYP) =  -1104.85705688     A.U. after   13 cycles
 SCF Done:  E(RB3LYP) =  -1104.86251798     A.U. after   13 cycles
 SCF Done:  E(RB3LYP) =  -1104.86462513     A.U. after   13 cycles
 SCF Done:  E(RB3LYP) =  -1104.86505271     A.U. after   11 cycles
 SCF Done:  E(RB3LYP) =  -1104.86513940     A.U. after   11 cycles
 SCF Done:  E(RB3LYP) =  -1104.86516485     A.U. after   10 cycles
 SCF Done:  E(RB3LYP) =  -1104.86517177     A.U. after    9 cycles
 SCF Done:  E(RB3LYP) =  -1104.86517323     A.U. after    8 cycles
 SCF Done:  E(RB3LYP) =  -1104.86517358     A.U. after    7 cycles
 Optimization completed.
    -- Stationary point found.
 Normal termination of Gaussian 16 at Thu May 18 03:15:33 2023.

 ----------------------------------------------------------------------
 #N Geom=AllCheck Guess=TCheck SCRF=Check GenChk RB3LYP/6-31G(2df,p) Fr
 eq
 ----------------------------------------------------------------------

 Structure from the checkpoint file:  "CNCC1dCNdc2ncccc2dCSCdCCdC1.chk"
 -------------------
 Title Card Required
 -------------------
 Charge =  0 Multiplicity = 1

                         Standard orientation:
 ---------------------------------------------------------------------
 Center     Atomic      Atomic             Coordinates (Angstroms)
 Number     Number       Type             X           Y           Z
 ---------------------------------------------------------------------
      1          6           0        4.731850   -2.081940    0.925867
      2          7           0        3.663518   -1.718291    0.007584
      3          6           0        2.592985   -0.949661    0.642100
      4          6           0        1.512458   -0.610114   -0.361420
      5          6           0        0.288598   -1.134092   -0.193957
      6          7           0       -0.812723   -1.069076   -1.039895
      7          6           0       -1.950624   -0.648090   -0.621025
      8          7           0       -3.080862   -0.971930   -1.376815
      9          6           0       -4.166854   -1.192196   -0.715278
     10          6           0       -4.305043   -1.069369    0.728519
     11          6           0       -3.330504   -0.433276    1.416717
     12          6           0       -2.172998    0.045134    0.686012
     13          6           0       -1.437600    1.102208    1.124312
     14         16           0       -0.588096    2.113305   -0.019402
     15          6           0        0.991544    2.525794    0.675521
     16          6           0        2.109916    2.327099   -0.037465
     17          6           0        2.222633    1.584608   -1.306322
     18          6           0        1.904104    0.294000   -1.469019
     19          1           0        5.465475   -2.708188    0.409468
     20          1           0        4.392974   -2.623242    1.829065
     21          1           0        5.248078   -1.175518    1.263850
     22          1           0        3.261507   -2.554881   -0.403308
     23          1           0        3.045746   -0.030994    1.039096
     24          1           0        2.143472   -1.473929    1.507233
     25          1           0        0.128273   -1.748072    0.695665
     26          1           0       -5.046570   -1.479968   -1.292046
     27          1           0       -5.222995   -1.396500    1.203141
     28          1           0       -3.433173   -0.190317    2.470881
     29          1           0       -1.535155    1.450962    2.151100
     30          1           0        1.001766    3.075918    1.611297
     31          1           0        3.022626    2.791147    0.340762
     32          1           0        2.618455    2.141587   -2.154067
     33          1           0        1.986737   -0.136435   -2.465189
 ---------------------------------------------------------------------

 SCF Done:  E(RB3LYP) =  -1104.86517358     A.U. after    1 cycles

 The electronic state is 1-A.
 Alpha  occ. eigenvalues --  -88.89439 -14.32742 -14.31926 -14.30456 -10.25713
 Alpha  occ. eigenvalues --  -10.24051 -10.23662 -10.21955 -10.21871 -10.21811
 Alpha  occ. eigenvalues --  -10.20654 -10.20392 -10.20169 -10.19957 -10.19389
 Alpha  occ. eigenvalues --  -10.18476 -10.18350 -10.17384  -7.95573  -5.92053
 Alpha  occ. eigenvalues --   -5.91685  -5.91178  -0.96528  -0.90151  -0.89161
 Alpha  occ. eigenvalues --   -0.84712  -0.82491  -0.80003  -0.76806  -0.75104
 Alpha  occ. eigenvalues --   -0.70841  -0.68460  -0.66462  -0.62729  -0.61364
 Alpha  occ. eigenvalues --   -0.60227  -0.59279  -0.54631  -0.53026  -0.50947
 Alpha  occ. eigenvalues --   -0.49628  -0.48277  -0.47656  -0.46813  -0.45983
 Alpha  occ. eigenvalues --   -0.44870  -0.44681  -0.43165  -0.42637  -0.41727
 Alpha  occ. eigenvalues --   -0.40489  -0.39707  -0.38424  -0.37950  -0.36773
 Alpha  occ. eigenvalues --   -0.35961  -0.35631  -0.34214  -0.32581  -0.30048
 Alpha  occ. eigenvalues --   -0.29550  -0.28836  -0.27337  -0.25835  -0.24224
 Alpha  occ. eigenvalues --   -0.21810  -0.21391  -0.19762
 Alpha virt. eigenvalues --   -0.09178  -0.02528  -0.00618  -0.00336   0.02740
 Alpha virt. eigenvalues --    0.05281   0.07253   0.07977   0.09603   0.09800
 Alpha virt. eigenvalues --    0.10823   0.11812   0.13069   0.13361   0.13768

 Mulliken charges:
               1
     1  C   -0.304386
     2  N   -0.270314
     3  C   -0.219229
     4  C    0.185489
     5  C   -0.091468
     6  N   -0.251465
     7  C    0.253605
     8  N   -0.257712
     9  C   -0.003085
    10  C   -0.126324
    11  C   -0.142838
    12  C    0.193632
    13  C   -0.177750
    14  S   -0.071133
    15  C   -0.101136
    16  C   -0.110255
    17  C   -0.080932
    18  C   -0.121250
    19  H    0.116053
    20  H    0.088012
    21  H    0.117687
    22  H    0.213900
    23  H    0.096918
    24  H    0.068945
    25  H    0.091438
    26  H    0.118698
    27  H    0.108730
    28  H    0.114135
    29  H    0.122202
    30  H    0.116588
    31  H    0.112910
    32  H    0.100312
    33  H    0.110022
 Sum of Mulliken charges =   0.00000

 Dipole moment (field-independent basis, Debye):
    X=             -0.6789    Y=              0.6400    Z=              4.3576  Tot=              4.4564
 Quadrupole moment (field-independent basis, Debye-Ang):
   XX=            -99.1449   YY=           -108.2971   ZZ=           -111.1041
   XY=              4.0702   XZ=             -6.5784   YZ=             -0.6475

  Exact polarizability: 280.540  37.126 176.120  -9.878  11.043 151.653
 Approx polarizability: 418.392  79.321 312.292 -20.383  39.873 277.110

                      1                      2                      3
                      A                      A                      A
 Frequencies --     44.1622                57.3990                80.7449
 Red. masses --      3.9292                 4.3711                 4.1820
 Frc consts  --      0.0045                 0.0085                 0.0161
 IR Inten    --      0.4762                 0.5280                 0.5904

                      4                      5                      6
                      A                      A                      A
 Frequencies --     90.2307               103.0640               118.4164
 Red. masses --      5.8863                 2.0188                 4.8046
 Frc consts  --      0.0282                 0.0126                 0.0397
 IR Inten    --      3.8496                 1.6785                 3.8217

                      7                      8                      9
                      A                      A                      A
 Frequencies --    134.8487               141.8364               168.2815
 Red. masses --      5.6284                 3.9762                 4.2997
 Frc consts  --      0.0603                 0.0471                 0.0717
 IR Inten    --      0.9575                 2.1021                 4.0606

                     10                     11                     12
                      A                      A                      A
 Frequencies --    205.6529               234.5716               248.9933
 Red. masses --      4.7444                 2.0670                 1.8144
 Frc consts  --      0.1182                 0.0670                 0.0663
 IR Inten    --      1.0251                 1.5839                 0.4816

                     13                     14                     15
                      A                      A                      A
 Frequencies --    276.6437               292.8262               313.6929
 Red. masses --      3.3012                 3.9829                 3.8185
 Frc consts  --      0.1489                 0.2012                 0.2214
 IR Inten    --      4.8776                 1.4926                 4.1853

                     16                     17                     18
                      A                      A                      A
 Frequencies --    324.5791               342.3915               379.6123
 Red. masses --      3.3037                 3.5582                 3.4703
 Frc consts  --      0.2051                 0.2458                 0.2946
 IR Inten    --      0.2103                 8.8771                 8.5692

                     19                     20                     21
                      A                      A                      A
 Frequencies --    422.3123               441.4386               482.2593
 Red. masses --      4.3134                 3.4707                 3.4578
 Frc consts  --      0.4532                 0.3985                 0.4738
 IR Inten    --      0.7155                 1.9701                 2.6433

                     22                     23                     24
                      A                      A                      A
 Frequencies --    520.2497               551.5951               572.2880
 Red. masses --      4.0987                 4.6669                 3.3586
 Frc consts  --      0.6536                 0.8366                 0.6481
 IR Inten    --      3.9104                 5.0418                 7.8020

                     25                     26                     27
                      A                      A                      A
 Frequencies --    583.1003               624.7772               642.5931
 Red. masses --      4.7182                 5.5611                 2.5367
 Frc consts  --      0.9452                 1.2790                 0.6172
 IR Inten    --      3.2291                 4.7125                 3.2994

                     28                     29                     30
                      A                      A                      A
 Frequencies --    708.2267               733.0517               754.2082
 Red. masses --      3.2909                 3.1923                 2.0249
 Frc consts  --      0.9725                 1.0107                 0.6786
 IR Inten    --     16.8576                15.9241                36.5475

                     31                     32                     33
                      A                      A                      A
 Frequencies --    758.8621               778.1187               787.1638
 Red. masses --      1.6949                 1.7777                 2.0056
 Frc consts  --      0.5751                 0.6342                 0.7322
 IR Inten    --     18.6651                20.3751                64.1202

                     34                     35                     36
                      A                      A                      A
 Frequencies --    796.8628               802.7513               844.4383
 Red. masses --      2.9061                 3.4529                 3.2410
 Frc consts  --      1.0872                 1.3110                 1.3617
 IR Inten    --     33.1504                12.7914                25.0873

                     37                     38                     39
                      A                      A                      A
 Frequencies --    871.1278               879.1065               887.9440
 Red. masses --      2.6925                 1.8736                 2.1494
 Frc consts  --      1.2038                 0.8531                 0.9985
 IR Inten    --      0.9851                 7.9678                12.1611

                     40                     41                     42
                      A                      A                      A
 Frequencies --    923.4797               959.0046               970.8782
 Red. masses --      5.1421                 1.4787                 1.5462
 Frc consts  --      2.5837                 0.8012                 0.8587
 IR Inten    --      6.2895                 3.8544                 1.7529

                     43                     44                     45
                      A                      A                      A
 Frequencies --    974.4438               977.5929               980.9692
 Red. masses --      1.8696                 1.7864                 1.5237
 Frc consts  --      1.0459                 1.0059                 0.8639
 IR Inten    --      2.8196                 2.2003                 7.2177

                     46                     47                     48
                      A                      A                      A
 Frequencies --    987.8827               998.0998              1004.5918
 Red. masses --      1.4644                 2.2936                 1.6249
 Frc consts  --      0.8420                 1.3462                 0.9662
 IR Inten    --      0.2133                 5.8860                14.3787

                     49                     50                     51
                      A                      A                      A
 Frequencies --   1116.6147              1130.1221              1139.2170
 Red. masses --      4.1891                 2.1638                 1.7127
 Frc consts  --      3.0773                 1.6282                 1.3096
 IR Inten    --    116.8784                 6.7451                14.9370

                     52                     53                     54
                      A                      A                      A
 Frequencies --   1157.7402              1178.0759              1180.9450
 Red. masses --      2.1605                 1.7637                 1.6801
 Frc consts  --      1.7062                 1.4422                 1.3805
 IR Inten    --     14.5997                35.5062                23.7201

                     55                     56                     57
                      A                      A                      A
 Frequencies --   1187.6719              1192.2683              1201.9440
 Red. masses --      1.9673                 1.4789                 1.1240
 Frc consts  --      1.6350                 1.2386                 0.9567
 IR Inten    --      4.0737                 3.3886                 1.1228

                     58                     59                     60
                      A                      A                      A
 Frequencies --   1239.9199              1276.5957              1321.1500
 Red. masses --      1.3026                 1.2872                 1.7758
 Frc consts  --      1.1799                 1.2359                 1.8262
 IR Inten    --      3.8819                 6.6587                 9.4077

                     61                     62                     63
                      A                      A                      A
 Frequencies --   1345.3415              1369.4083              1379.7092
 Red. masses --      1.3950                 1.4224                 1.3304
 Frc consts  --      1.4876                 1.5716                 1.4922
 IR Inten    --     11.2029                52.8152                 4.6706

                     64                     65                     66
                      A                      A                      A
 Frequencies --   1394.4828              1425.4941              1430.0723
 Red. masses --      1.4609                 1.6775                 1.7134
 Frc consts  --      1.6737                 2.0084                 2.0645
 IR Inten    --      9.3073                 8.3859                18.8138

                     67                     68                     69
                      A                      A                      A
 Frequencies --   1456.5634              1478.5976              1488.6396
 Red. masses --      1.1731                 1.2040                 1.0704
 Frc consts  --      1.4663                 1.5509                 1.3976
 IR Inten    --      4.9604                31.1338                 6.1221

                     70                     71                     72
                      A                      A                      A
 Frequencies --   1504.9151              1517.2911              1552.5875
 Red. masses --      1.0763                 1.0517                 8.5387
 Frc consts  --      1.4362                 1.4265                12.1270
 IR Inten    --      8.8665                 8.9947               103.1970

                     73                     74                     75
                      A                      A                      A
 Frequencies --   1564.5437              1636.8904              1651.5375
 Red. masses --      8.0460                 6.8035                 9.6283
 Frc consts  --     11.6039                10.7404                15.4731
 IR Inten    --     24.0533                 3.7100               209.4323

                     76                     77                     78
                      A                      A                      A
 Frequencies --   1661.2253              1675.4696              1709.1567
 Red. masses --      7.1490                 7.6834                 8.4269
 Frc consts  --     11.6239                12.7080                14.5038
 IR Inten    --     58.1204                14.0498                32.1838

                     79                     80                     81
                      A                      A                      A
 Frequencies --   2911.7345              2930.0071              3021.7853
 Red. masses --      1.0719                 1.0610                 1.0851
 Frc consts  --      5.3542                 5.3664                 5.8378
 IR Inten    --     43.3157               118.0709                20.6723

                     82                     83                     84
                      A                      A                      A
 Frequencies --   3048.2107              3083.7811              3099.2892
 Red. masses --      1.0727                 1.0855                 1.1002
 Frc consts  --      5.8725                 6.0818                 6.2264
 IR Inten    --     43.0538                21.3925                32.2168

                     85                     86                     87
                      A                      A                      A
 Frequencies --   3107.4897              3122.6833              3129.1119
 Red. masses --      1.0837                 1.0889                 1.0817
 Frc consts  --      6.1658                 6.2559                 6.2403
 IR Inten    --      9.5969                42.8535                 3.5248

                     88                     89                     90
                      A                      A                      A
 Frequencies --   3134.1192              3149.8975              3164.2923
 Red. masses --      1.0893                 1.0940                 1.0881
 Frc consts  --      6.3040                 6.3950                 6.4190
 IR Inten    --     10.8771                26.5607                 7.4139

                     91                     92                     93
                      A                      A                      A
 Frequencies --   3172.8184              3201.3253              3514.3957
 Red. masses --      1.0933                 1.0956                 1.0739
 Frc consts  --      6.4843                 6.6153                 7.8150
 IR Inten    --     22.9854                17.1182                 0.3026

 - Thermochemistry -
 -------------------
 Temperature   298.150 Kelvin.  Pressure   1.00000 Atm.
 Atom     1 has atomic number  6 and mass  12.00000

 Molecular mass:   257.09867 amu.
 Principal axes and moments of inertia in atomic units:
                           1         2         3
     Eigenvalues --  2808.155307059.178378373.32177
           X            0.99992  -0.01220   0.00215
           Y            0.01223   0.99981  -0.01495
           Z           -0.00197   0.01498   0.99989
 This molecule is an asymmetric top.
 Rotational symmetry number  1.
 Warning -- assumption of classical behavior for rotation
           may cause significant error
 Rotational temperatures (Kelvin)      0.03084     0.01227     0.01034
 Rotational constants (GHZ):           0.64268     0.25566     0.21553
 Zero-point vibrational energy     688645.3 (Joules/Mol)
                                  164.59017 (Kcal/Mol)
 Warning -- explicit consideration of  25 degrees of freedom as
           vibrations may cause significant error
 Vibrational temperatures:     63.54    82.58   116.17   129.82   148.29
          (Kelvin)            170.37   194.02   204.07   242.12   295.89
                              337.50   358.25   398.03   421.31   451.33
                              467.00   492.63   546.18   607.61   635.13
                              693.86   748.52   793.62   823.39   838.95
                              898.92   924.55  1018.98  1054.70  1085.14
                             1091.83  1119.54  1132.55  1146.51  1154.98
                             1214.96  1253.36  1264.84  1277.55  1328.68
                             1379.79  1396.88  1402.01  1406.54  1411.40
                             1421.34  1436.04  1445.38  1606.56  1625.99
                             1639.08  1665.73  1694.99  1699.12  1708.79
                             1715.41  1729.33  1783.97  1836.74  1900.84
                             1935.65  1970.27  1985.09  2006.35  2050.97
                             2057.56  2095.67  2127.37  2141.82  2165.24
                             2183.04  2233.83  2251.03  2355.12  2376.19
                             2390.13  2410.63  2459.10  4189.34  4215.63
                             4347.68  4385.70  4436.87  4459.19  4470.98
                             4492.84  4502.09  4509.30  4532.00  4552.71
                             4564.98  4605.99  5056.43

 Zero-point correction=                           0.262291 (Hartree/Particle)
 Thermal correction to Energy=                    0.279060
 Thermal correction to Enthalpy=                  0.280004
 Thermal correction to Gibbs Free Energy=         0.217822
 Sum of electronic and zero-point Energies=          -1104.602882
 Sum of electronic and thermal Energies=             -1104.586114
 Sum of electronic and thermal Enthalpies=           -1104.585170
 Sum of electronic and thermal Free Energies=        -1104.647352

                     E (Thermal)             CV                S
                      KCal/Mol        Cal/Mol-Kelvin    Cal/Mol-Kelvin
 Total                  175.113             64.544            130.874
 Electronic               0.000              0.000              0.000
 Translational            0.889              2.981             42.533
 Rotational               0.889              2.981             33.473
 Vibrational            173.335             58.582             54.868
 Vibration     1          0.595              1.980              5.063
 Vibration     2          0.596              1.975              4.545
 Vibration     3          0.600              1.962              3.873
 Vibration     4          0.602              1.956              3.655
 Vibration     5          0.605              1.947              3.396
 Vibration     6          0.609              1.934              3.126
 Vibration     7          0.613              1.919              2.876
 Vibration     8          0.615              1.911              2.779
 Vibration     9          0.625              1.882              2.455
 Vibration    10          0.640              1.832              2.082
 Vibration    11          0.654              1.788              1.844
 Vibration    12          0.662              1.764              1.738
 Vibration    13          0.678              1.717              1.554
 Vibration    14          0.688              1.687              1.458
 Vibration    15          0.702              1.648              1.343
 Vibration    16          0.709              1.626              1.287
 Vibration    17          0.722              1.591              1.201
 Vibration    18          0.750              1.514              1.041
 Vibration    19          0.785              1.422              0.884
 Vibration    20          0.801              1.380              0.822
 Vibration    21          0.838              1.289              0.704
 Vibration    22          0.875              1.205              0.609
 Vibration    23          0.907              1.136              0.541
 Vibration    24          0.928              1.091              0.500
 Vibration    25          0.940              1.068              0.480

                           ! Non-Optimized Parameters !
 Normal termination of Gaussian 16 at Thu May 18 07:21:52 2023.
