 Gaussian 16, Revision A.03,
 Gaussian 16:  ES64L-G16RevA.03 25-Dec-2016

 -----------------------------
 # opt freq b3lyp/6-31g(2df,p)
 -----------------------------

 -------------------
 Title Card Required
 -------------------
 Symbolic Z-matrix:
 Charge =  0 Multiplicity = 1

 SCF Done:  E(RB3LYP) =  -494.262065082     A.U. after   16 cycles
 SCF Done:  E(RB3LYP) =  -494.291257687     A.U. after   17 cycles
 SCF Done:  E(RB3LYP) =  -494.295726314     A.U. after   17 cycles
 SCF Done:  E(RB3LYP) =  -494.297364668     A.U. after   15 cycles
 SCF Done:  E(RB3LYP) =  -494.297182581     A.U. after   14 cycles
 SCF Done:  E(RB3LYP) =  -494.297572517     A.U. after   13 cycles
 SCF Done:  E(RB3LYP) =  -494.297709027     A.U. after   14 cycles
 SCF Done:  E(RB3LYP) =  -494.298024933     A.U. after   13 cycles
 SCF Done:  E(RB3LYP) =  -494.297950219     A.U. after   13 cycles
 SCF Done:  E(RB3LYP) =  -494.298041381     A.U. after   14 cycles
 SCF Done:  E(RB3LYP) =  -494.298682826     A.U. after   13 cycles
 SCF Done:  E(RB3LYP) =  -494.298977734     A.U. after   14 cycles
 SCF Done:  E(RB3LYP) =  -494.299043608     A.U. after   14 cycles
 SCF Done:  E(RB3LYP) =  -494.299201502     A.U. after   12 cycles
 SCF Done:  E(RB3LYP) =  -494.299206868     A.U. after   11 cycles
 SCF Done:  E(RB3LYP) =  -494.299210116     A.U. after    9 cycles
 SCF Done:  E(RB3LYP) =  -494.299210304     A.U. after    7 cycles
 SCF Done:  E(RB3LYP) =  -494.299210318     A.U. after    7 cycles
 Optimization completed.
    -- Stationary point found.
 Normal termination of Gaussian 16 at Thu May 18 13:38:09 2023.

 ----------------------------------------------------------------------
 #N Geom=AllCheck Guess=TCheck SCRF=Check GenChk RB3LYP/6-31G(2df,p) Fr
 eq
 ----------------------------------------------------------------------

 Structure from the checkpoint file:  "CNdCdCdCCdCCqdOrCdN.chk"
 -------------------
 Title Card Required
 -------------------
 Charge =  0 Multiplicity = 1

                         Standard orientation:
 ---------------------------------------------------------------------
 Center     Atomic      Atomic             Coordinates (Angstroms)
 Number     Number       Type             X           Y           Z
 ---------------------------------------------------------------------
      1          6           0        5.051409    1.211071   -0.000005
      2          7           0        4.571797   -0.164343   -0.000034
      3          6           0        3.369355   -0.437363    0.000019
      4          6           0        2.154101   -0.800571   -0.000011
      5          6           0        0.891296   -1.209698    0.000035
      6          6           0       -0.241894   -0.316536    0.000025
      7          6           0       -1.527849   -0.726479    0.000005
      8          6           0       -2.643681    0.233481   -0.000023
      9          8           0       -2.494163    1.443562   -0.000022
     10          6           0       -4.047995   -0.344139   -0.000039
     11          7           0       -5.088064    0.379425    0.000021
     12          1           0        5.686345    1.356545   -0.880127
     13          1           0        5.685497    1.356822    0.880688
     14          1           0        4.247415    1.955431   -0.000491
     15          1           0        0.669275   -2.278935    0.000031
     16          1           0       -0.044093    0.752086    0.000033
     17          1           0       -1.770376   -1.786093    0.000011
     18          1           0       -4.150200   -1.432846   -0.000136
     19          1           0       -4.785147    1.364323    0.000210
 ---------------------------------------------------------------------

 SCF Done:  E(RB3LYP) =  -494.299210318     A.U. after    1 cycles

 The electronic state is 1-A.
 Alpha  occ. eigenvalues --  -19.14441 -14.36533 -14.33455 -10.28138 -10.24987
 Alpha  occ. eigenvalues --  -10.23745 -10.23720 -10.23128 -10.22789 -10.21435
 Alpha  occ. eigenvalues --  -10.20969  -1.05249  -0.94998  -0.91144  -0.84272
 Alpha  occ. eigenvalues --   -0.78766  -0.73898  -0.70159  -0.66427  -0.59377
 Alpha  occ. eigenvalues --   -0.55636  -0.53896  -0.50911  -0.48929  -0.46178
 Alpha  occ. eigenvalues --   -0.45811  -0.45675  -0.44969  -0.42331  -0.41971
 Alpha  occ. eigenvalues --   -0.39310  -0.37976  -0.35052  -0.33490  -0.32339
 Alpha  occ. eigenvalues --   -0.29691  -0.26078  -0.25475  -0.23808
 Alpha virt. eigenvalues --   -0.11961  -0.05960   0.01426   0.03025   0.09412
 Alpha virt. eigenvalues --    0.09617   0.10621   0.12615   0.13333   0.14261
 Alpha virt. eigenvalues --    0.14657   0.14809   0.16251   0.16824   0.17444

 Mulliken charges:
               1
     1  C   -0.339623
     2  N   -0.285414
     3  C    0.175207
     4  C    0.217705
     5  C   -0.316413
     6  C   -0.015354
     7  C   -0.182288
     8  C    0.319318
     9  O   -0.331866
    10  C   -0.018716
    11  N   -0.374041
    12  H    0.150432
    13  H    0.150441
    14  H    0.129148
    15  H    0.124350
    16  H    0.136112
    17  H    0.104738
    18  H    0.110744
    19  H    0.245519
 Sum of Mulliken charges =  -0.00000

 Dipole moment (field-independent basis, Debye):
    X=              2.8847    Y=             -0.8212    Z=              0.0003  Tot=              2.9993
 Quadrupole moment (field-independent basis, Debye-Ang):
   XX=            -76.1652   YY=            -60.4809   ZZ=            -63.1857
   XY=             12.7704   XZ=              0.0000   YZ=              0.0006

  Exact polarizability: 284.000  13.898  92.298  -0.000   0.001  49.469
 Approx polarizability: 464.982  22.694 149.831  -0.002   0.001  77.154

                      1                      2                      3
                      A                      A                      A
 Frequencies --     34.3474                34.9962                93.5528
 Red. masses --      7.5006                 5.1750                 3.1984
 Frc consts  --      0.0052                 0.0037                 0.0165
 IR Inten    --      0.0136                 1.3602                 3.2309

                      4                      5                      6
                      A                      A                      A
 Frequencies --    114.7107               121.4595               139.5163
 Red. masses --      1.3179                 5.3907                 2.2357
 Frc consts  --      0.0102                 0.0469                 0.0256
 IR Inten    --      0.5473                 2.1663                 3.9998

                      7                      8                      9
                      A                      A                      A
 Frequencies --    184.6067               196.3793               276.4284
 Red. masses --      2.3428                 4.3355                 8.1270
 Frc consts  --      0.0470                 0.0985                 0.3659
 IR Inten    --      0.0046                 8.6156                 1.0161

                     10                     11                     12
                      A                      A                      A
 Frequencies --    287.5090               301.9417               312.2043
 Red. masses --      4.1597                 2.7547                 4.9548
 Frc consts  --      0.2026                 0.1480                 0.2845
 IR Inten    --      1.8167                 0.2700                 0.9450

                     13                     14                     15
                      A                      A                      A
 Frequencies --    387.6932               519.5821               574.5500
 Red. masses --      6.1395                 4.7691                 6.4741
 Frc consts  --      0.5437                 0.7586                 1.2592
 IR Inten    --     55.8706                 0.8771                24.9696

                     16                     17                     18
                      A                      A                      A
 Frequencies --    583.6417               617.2381               732.6469
 Red. masses --      2.6268                 8.1718                 4.5257
 Frc consts  --      0.5272                 1.8343                 1.4313
 IR Inten    --     21.6129                 9.7132                15.0038

                     19                     20                     21
                      A                      A                      A
 Frequencies --    828.5945               836.0584               908.5018
 Red. masses --      1.4550                 4.5960                 1.9477
 Frc consts  --      0.5886                 1.8928                 0.9472
 IR Inten    --      1.8956                18.1952                 4.8264

                     22                     23                     24
                      A                      A                      A
 Frequencies --    919.0722               944.0051              1041.8010
 Red. masses --      5.4043                 2.2584                 1.1338
 Frc consts  --      2.6896                 1.1858                 0.7250
 IR Inten    --      6.5245                 7.8503                17.3205

                     25                     26                     27
                      A                      A                      A
 Frequencies --   1072.4525              1095.6516              1117.6780
 Red. masses --      4.0400                 2.6981                 1.3275
 Frc consts  --      2.7377                 1.9083                 0.9771
 IR Inten    --     15.2846               188.6027                 0.7993

                     28                     29                     30
                      A                      A                      A
 Frequencies --   1154.9992              1171.9856              1189.7604
 Red. masses --      1.5351                 1.0705                 2.2455
 Frc consts  --      1.2065                 0.8663                 1.8727
 IR Inten    --      8.7934                50.3160                 1.2634

                     31                     32                     33
                      A                      A                      A
 Frequencies --   1244.0955              1265.8585              1317.1631
 Red. masses --      1.2115                 1.4040                 1.5209
 Frc consts  --      1.1048                 1.3255                 1.5547
 IR Inten    --    176.3383               131.9939                 8.0615

                     34                     35                     36
                      A                      A                      A
 Frequencies --   1383.1158              1430.3458              1435.2626
 Red. masses --      1.6190                 1.2888                 1.1887
 Frc consts  --      1.8248                 1.5535                 1.4427
 IR Inten    --    203.4051                17.3875                23.3280

                     37                     38                     39
                      A                      A                      A
 Frequencies --   1480.1985              1489.3323              1632.3382
 Red. masses --      1.0436                 1.0611                 5.8949
 Frc consts  --      1.3472                 1.3868                 9.2544
 IR Inten    --      4.9061                63.1821               371.1824

                     40                     41                     42
                      A                      A                      A
 Frequencies --   1697.4505              1742.3120              1762.1795
 Red. masses --      9.4700                 9.9853                 9.6294
 Frc consts  --     16.0766                17.8592                17.6177
 IR Inten    --     24.7366                80.4026                35.0019

                     43                     44                     45
                      A                      A                      A
 Frequencies --   2220.1524              3018.8428              3095.4551
 Red. masses --     11.7504                 1.0321                 1.0865
 Frc consts  --     34.1247                 5.5417                 6.1336
 IR Inten    --    342.8292                52.0382                 1.1803

                     46                     47                     48
                      A                      A                      A
 Frequencies --   3095.8937              3097.4245              3100.8159
 Red. masses --      1.0890                 1.1011                 1.1050
 Frc consts  --      6.1496                 6.2243                 6.2600
 IR Inten    --     37.5916                 9.3958                11.5488

                     49                     50                     51
                      A                      A                      A
 Frequencies --   3164.7063              3181.3580              3363.4322
 Red. masses --      1.0901                 1.0881                 1.0713
 Frc consts  --      6.4325                 6.4887                 7.1405
 IR Inten    --      9.0102                 0.4668                 3.4300

 - Thermochemistry -
 -------------------
 Temperature   298.150 Kelvin.  Pressure   1.00000 Atm.
 Atom     1 has atomic number  6 and mass  12.00000

 Molecular mass:   148.06366 amu.
 Principal axes and moments of inertia in atomic units:
                           1         2         3
     Eigenvalues --   400.608456073.313636462.76346
           X            0.99988   0.01549   0.00000
           Y           -0.01549   0.99988   0.00000
           Z            0.00000  -0.00000   1.00000
 This molecule is an asymmetric top.
 Rotational symmetry number  1.
 Rotational temperatures (Kelvin)      0.21621     0.01426     0.01340
 Rotational constants (GHZ):           4.50500     0.29716     0.27925
 Zero-point vibrational energy     376891.3 (Joules/Mol)
                                   90.07917 (Kcal/Mol)
 Warning -- explicit consideration of  17 degrees of freedom as
           vibrations may cause significant error
 Vibrational temperatures:     49.42    50.35   134.60   165.04   174.75
          (Kelvin)            200.73   265.61   282.55   397.72   413.66
                              434.43   449.19   557.80   747.56   826.65
                              839.73   888.07  1054.12  1192.16  1202.90
                             1307.13  1322.34  1358.21  1498.92  1543.02
                             1576.40  1608.09  1661.79  1686.23  1711.80
                             1789.98  1821.29  1895.10  1990.00  2057.95
                             2065.02  2129.68  2142.82  2348.57  2442.25
                             2506.80  2535.38  3194.30  4343.44  4453.67
                             4454.30  4456.50  4461.38  4553.31  4577.26
                             4839.23

 Zero-point correction=                           0.143550 (Hartree/Particle)
 Thermal correction to Energy=                    0.155444
 Thermal correction to Enthalpy=                  0.156388
 Thermal correction to Gibbs Free Energy=         0.103819
 Sum of electronic and zero-point Energies=           -494.155660
 Sum of electronic and thermal Energies=              -494.143767
 Sum of electronic and thermal Enthalpies=            -494.142823
 Sum of electronic and thermal Free Energies=         -494.195392

                     E (Thermal)             CV                S
                      KCal/Mol        Cal/Mol-Kelvin    Cal/Mol-Kelvin
 Total                   97.542             40.278            110.641
 Electronic               0.000              0.000              0.000
 Translational            0.889              2.981             40.888
 Rotational               0.889              2.981             31.131
 Vibrational             95.765             34.316             38.622
 Vibration     1          0.594              1.983              5.561
 Vibration     2          0.594              1.982              5.524
 Vibration     3          0.603              1.954              3.584
 Vibration     4          0.608              1.937              3.188
 Vibration     5          0.609              1.931              3.077
 Vibration     6          0.615              1.914              2.810
 Vibration     7          0.631              1.861              2.281
 Vibration     8          0.636              1.845              2.167
 Vibration     9          0.678              1.717              1.556
 Vibration    10          0.685              1.697              1.489
 Vibration    11          0.694              1.670              1.406
 Vibration    12          0.701              1.650              1.351
 Vibration    13          0.756              1.496              1.009
 Vibration    14          0.875              1.207              0.611
 Vibration    15          0.931              1.086              0.496
 Vibration    16          0.941              1.067              0.479
 Vibration    17          0.977              0.995              0.421

 Optimization completed.
    -- Stationary point found.
 Normal termination of Gaussian 16 at Thu May 18 14:02:20 2023.
