 Gaussian 16, Revision A.03,
 Gaussian 16:  ES64L-G16RevA.03 25-Dec-2016

 -----------------------------
 # opt freq b3lyp/6-31g(2df,p)
 -----------------------------

 -------------------
 Title Card Required
 -------------------
 Symbolic Z-matrix:
 Charge =  0 Multiplicity = 1

 SCF Done:  E(RB3LYP) =  -1391.37325574     A.U. after   33 cycles
 SCF Done:  E(RB3LYP) =  -1391.50490138     A.U. after   23 cycles
 SCF Done:  E(RB3LYP) =  -1383.05583746     A.U. after   33 cycles
 SCF Done:  E(RB3LYP) =  -1391.50567002     A.U. after   20 cycles
 SCF Done:  E(RB3LYP) =  -1391.55951388     A.U. after   25 cycles
 SCF Done:  E(RB3LYP) =  -1391.61959449     A.U. after   21 cycles
 SCF Done:  E(RB3LYP) =  -1391.70717432     A.U. after   20 cycles
 SCF Done:  E(RB3LYP) =  -1391.74235997     A.U. after   18 cycles
 SCF Done:  E(RB3LYP) =  -1391.77775352     A.U. after   22 cycles
 SCF Done:  E(RB3LYP) =  -1391.86470680     A.U. after   23 cycles
 SCF Done:  E(RB3LYP) =  -1392.17174275     A.U. after   12 cycles
 SCF Done:  E(RB3LYP) =  -1392.17174511     A.U. after   11 cycles
 SCF Done:  E(RB3LYP) =  -1392.17174752     A.U. after   11 cycles
 SCF Done:  E(RB3LYP) =  -1392.17175062     A.U. after   11 cycles
 SCF Done:  E(RB3LYP) =  -1392.17175284     A.U. after    9 cycles
 SCF Done:  E(RB3LYP) =  -1392.17175474     A.U. after   10 cycles
 SCF Done:  E(RB3LYP) =  -1392.17175566     A.U. after   11 cycles
 SCF Done:  E(RB3LYP) =  -1392.17175598     A.U. after   11 cycles
 SCF Done:  E(RB3LYP) =  -1392.17175608     A.U. after   10 cycles
 Optimization completed.
    -- Stationary point found.
 Normal termination of Gaussian 16 at Thu May 18 19:28:06 2023.

 ----------------------------------------------------------------------
 #N Geom=AllCheck Guess=TCheck SCRF=Check GenChk RB3LYP/6-31G(2df,p) Fr
 eq
 ----------------------------------------------------------------------

 Structure from the checkpoint file:  "CNdCC1dCCdCCdCCdCdCdCCdCSS1.chk"
 -------------------
 Title Card Required
 -------------------
 Charge =  0 Multiplicity = 1

                         Standard orientation:
 ---------------------------------------------------------------------
 Center     Atomic      Atomic             Coordinates (Angstroms)
 Number     Number       Type             X           Y           Z
 ---------------------------------------------------------------------
      1          6           0        6.158836    0.627439   -0.462923
      2          7           0        4.728014    0.698480   -0.241649
      3          6           0        4.123843   -0.353436    0.105236
      4          6           0        2.020698   -1.544175   -0.398161
      5          6           0        2.625704   -0.382212    0.354235
      6          6           0        1.919551    0.900216   -0.008571
      7          6           0        0.861827    1.366344    0.667599
      8          6           0       -0.067579    2.364320    0.175250
      9          6           0       -1.352054    2.318219    0.576949
     10          6           0       -2.510719    2.870375   -0.129620
     11          6           0       -3.474050    1.995426   -0.383712
     12          6           0       -4.092632    0.918328   -0.609972
     13          6           0       -4.569835   -0.274295   -0.900355
     14          6           0       -3.879349   -1.560884   -0.460322
     15          6           0       -2.993616   -1.350436    0.709051
     16         16           0       -1.464492   -1.432461    1.069677
     17         16           0        0.595574   -2.209435   -0.544645
     18          1           0        6.379764    0.938338   -1.490045
     19          1           0        6.585395   -0.373975   -0.295393
     20          1           0        6.660759    1.341933    0.198937
     21          1           0        4.630533   -1.322743    0.237538
     22          1           0        2.467016   -0.597619    1.424549
     23          1           0        2.243722    1.367422   -0.932792
     24          1           0        0.556216    0.855868    1.580703
     25          1           0        0.238277    2.991533   -0.659468
     26          1           0       -1.604186    1.605951    1.358093
     27          1           0       -2.517746    3.886861   -0.513788
     28          1           0       -5.441083   -0.398410   -1.538610
     29          1           0       -3.366041   -2.002312   -1.333853
     30          1           0       -4.649781   -2.283256   -0.152936
 ---------------------------------------------------------------------

 SCF Done:  E(RB3LYP) =  -1392.17175608     A.U. after    1 cycles

 The electronic state is 1-A.
 Alpha  occ. eigenvalues --  -88.90468 -88.90137 -14.32677 -10.23923 -10.23837
 Alpha  occ. eigenvalues --  -10.22732 -10.22590 -10.22584 -10.21759 -10.21325
 Alpha  occ. eigenvalues --  -10.20613 -10.19991 -10.19782 -10.19632 -10.19550
 Alpha  occ. eigenvalues --  -10.19447 -10.19275  -7.96695  -7.96392  -5.92947
 Alpha  occ. eigenvalues --   -5.92760  -5.92633  -5.92529  -5.92450  -5.92235
 Alpha  occ. eigenvalues --   -0.92454  -0.84270  -0.83605  -0.82382  -0.79502
 Alpha  occ. eigenvalues --   -0.78375  -0.75810  -0.73078  -0.70340  -0.67955
 Alpha  occ. eigenvalues --   -0.64482  -0.59205  -0.56389  -0.55813  -0.54598
 Alpha  occ. eigenvalues --   -0.52145  -0.50232  -0.48329  -0.47653  -0.46340
 Alpha  occ. eigenvalues --   -0.45884  -0.45298  -0.44412  -0.43661  -0.42820
 Alpha  occ. eigenvalues --   -0.42359  -0.40789  -0.38925  -0.38851  -0.37333
 Alpha  occ. eigenvalues --   -0.36193  -0.34495  -0.33064  -0.31500  -0.30967
 Alpha  occ. eigenvalues --   -0.30677  -0.29580  -0.29324  -0.26511  -0.25410
 Alpha  occ. eigenvalues --   -0.25276  -0.20832  -0.16287
 Alpha virt. eigenvalues --   -0.08293  -0.07394  -0.06680  -0.05452  -0.00696
 Alpha virt. eigenvalues --   -0.00046   0.01953   0.06362   0.07021   0.09473
 Alpha virt. eigenvalues --    0.11142   0.11489   0.12456   0.12561   0.13152

 Mulliken charges:
               1
     1  C   -0.316281
     2  N   -0.149988
     3  C    0.053835
     4  C    0.020893
     5  C   -0.188446
     6  C   -0.060741
     7  C   -0.057563
     8  C   -0.101159
     9  C   -0.054662
    10  C   -0.294673
    11  C    0.037518
    12  C    0.245888
    13  C   -0.270909
    14  C   -0.285938
    15  C    0.050603
    16  S   -0.083804
    17  S   -0.094061
    18  H    0.133630
    19  H    0.103665
    20  H    0.132730
    21  H    0.084443
    22  H    0.128494
    23  H    0.112629
    24  H    0.095801
    25  H    0.096563
    26  H    0.119461
    27  H    0.127113
    28  H    0.126803
    29  H    0.137141
    30  H    0.151016
 Sum of Mulliken charges =  -0.00000

 Dipole moment (field-independent basis, Debye):
    X=              0.0869    Y=             -0.2973    Z=             -0.4955  Tot=              0.5844
 Quadrupole moment (field-independent basis, Debye-Ang):
   XX=            -99.3840   YY=           -111.7997   ZZ=           -113.7539
   XY=              3.8491   XZ=              7.5481   YZ=             -2.2981

  Exact polarizability: 402.662  17.820 207.891 -14.140   7.195 129.282
 Approx polarizability:1061.429  32.720 380.809-146.680  40.420 269.985

                      1                      2                      3
                      A                      A                      A
 Frequencies --     22.0400                42.0745                54.6931
 Red. masses --      5.8760                 5.9299                 6.1522
 Frc consts  --      0.0017                 0.0062                 0.0108
 IR Inten    --      0.1875                 1.8711                 0.7609

                      4                      5                      6
                      A                      A                      A
 Frequencies --     68.7877                69.1411                88.5521
 Red. masses --      4.0991                 5.0667                 5.8414
 Frc consts  --      0.0114                 0.0143                 0.0270
 IR Inten    --      0.2059                 4.0590                 2.0217

                      7                      8                      9
                      A                      A                      A
 Frequencies --    103.9072               124.4132               141.6641
 Red. masses --      3.3617                 3.3286                 3.4800
 Frc consts  --      0.0214                 0.0304                 0.0411
 IR Inten    --      5.5515                 2.1498                 2.2492

                     10                     11                     12
                      A                      A                      A
 Frequencies --    146.5819               185.9887               197.1194
 Red. masses --      3.0602                 3.3911                 4.0276
 Frc consts  --      0.0387                 0.0691                 0.0922
 IR Inten    --      1.1870                 1.0473                25.1727

                     13                     14                     15
                      A                      A                      A
 Frequencies --    216.6555               218.7286               228.7908
 Red. masses --      3.1881                 2.4716                 2.6091
 Frc consts  --      0.0882                 0.0697                 0.0805
 IR Inten    --      1.1778                33.5873                 7.3328

                     16                     17                     18
                      A                      A                      A
 Frequencies --    234.4343               252.9507               303.1707
 Red. masses --      3.2185                 3.2052                 4.0721
 Frc consts  --      0.1042                 0.1208                 0.2205
 IR Inten    --    133.1326                 3.9555                30.8183

                     19                     20                     21
                      A                      A                      A
 Frequencies --    317.7967               340.6698               360.2774
 Red. masses --      4.5309                 3.6767                 5.0140
 Frc consts  --      0.2696                 0.2514                 0.3835
 IR Inten    --      6.8438                 9.7742                 4.8615

                     22                     23                     24
                      A                      A                      A
 Frequencies --    367.7222               390.2054               435.2165
 Red. masses --      5.9646                 6.3821                 6.4500
 Frc consts  --      0.4752                 0.5725                 0.7198
 IR Inten    --      3.1364                 6.9637                31.2521

                     25                     26                     27
                      A                      A                      A
 Frequencies --    484.6130               499.9980               554.1933
 Red. masses --      4.4958                 3.5389                 6.6262
 Frc consts  --      0.6221                 0.5213                 1.1991
 IR Inten    --     44.5404                 4.5905                 7.0379

                     28                     29                     30
                      A                      A                      A
 Frequencies --    578.0402               611.7055               679.1921
 Red. masses --      4.2742                 5.4998                 3.5536
 Frc consts  --      0.8414                 1.2125                 0.9658
 IR Inten    --      6.1953                29.4762               119.9630

                     31                     32                     33
                      A                      A                      A
 Frequencies --    711.6073               750.3901               769.3491
 Red. masses --      1.5372                 4.7423                 3.5288
 Frc consts  --      0.4586                 1.5733                 1.2306
 IR Inten    --     17.8492                90.0860                57.8771

                     34                     35                     36
                      A                      A                      A
 Frequencies --    835.1825               853.4591               880.2629
 Red. masses --      1.5982                 1.5798                 2.9147
 Frc consts  --      0.6568                 0.6780                 1.3307
 IR Inten    --      4.9009                 2.8796                28.8977

                     37                     38                     39
                      A                      A                      A
 Frequencies --    901.3456               916.5488               942.0076
 Red. masses --      2.2259                 2.0847                 1.8517
 Frc consts  --      1.0655                 1.0318                 0.9681
 IR Inten    --    101.5322                 7.7613                51.0595

                     40                     41                     42
                      A                      A                      A
 Frequencies --    975.8063               981.9467              1024.9991
 Red. masses --      1.2686                 1.6049                 2.6050
 Frc consts  --      0.7117                 0.9117                 1.6125
 IR Inten    --      5.9251                 7.1670                 7.3823

                     43                     44                     45
                      A                      A                      A
 Frequencies --   1034.3563              1053.0217              1095.6234
 Red. masses --      1.2008                 3.4576                 2.3808
 Frc consts  --      0.7569                 2.2589                 1.6838
 IR Inten    --     43.2340                13.1602                15.4200

                     46                     47                     48
                      A                      A                      A
 Frequencies --   1116.1083              1123.5945              1143.2088
 Red. masses --      1.6940                 2.2324                 1.4279
 Frc consts  --      1.2433                 1.6605                 1.0995
 IR Inten    --      5.4226                 2.8271                 0.1107

                     49                     50                     51
                      A                      A                      A
 Frequencies --   1161.6166              1162.9986              1175.8800
 Red. masses --      1.5134                 1.1089                 2.0000
 Frc consts  --      1.2032                 0.8837                 1.6293
 IR Inten    --      2.7876                79.4655                10.4191

                     52                     53                     54
                      A                      A                      A
 Frequencies --   1224.3511              1239.0533              1256.3069
 Red. masses --      1.2727                 1.5532                 1.5979
 Frc consts  --      1.1241                 1.4049                 1.4859
 IR Inten    --      9.4702                36.0451                 3.9142

                     55                     56                     57
                      A                      A                      A
 Frequencies --   1259.1009              1279.7198              1321.1299
 Red. masses --      4.2280                 1.4798                 1.7150
 Frc consts  --      3.9492                 1.4279                 1.7636
 IR Inten    --    128.8988                23.7547                17.1030

                     58                     59                     60
                      A                      A                      A
 Frequencies --   1326.7630              1339.0424              1358.8386
 Red. masses --      1.7555                 1.6325                 1.5867
 Frc consts  --      1.8207                 1.7246                 1.7262
 IR Inten    --     14.0451                10.3856                12.2065

                     61                     62                     63
                      A                      A                      A
 Frequencies --   1379.6599              1390.5907              1439.2745
 Red. masses --      1.2961                 1.6119                 1.1796
 Frc consts  --      1.4535                 1.8365                 1.4397
 IR Inten    --     21.4327                 2.8295                21.7171

                     64                     65                     66
                      A                      A                      A
 Frequencies --   1451.0706              1478.6071              1495.6195
 Red. masses --      1.1157                 1.0430                 1.0573
 Frc consts  --      1.3841                 1.3435                 1.3934
 IR Inten    --     13.2209                 3.4246                15.9255

                     67                     68                     69
                      A                      A                      A
 Frequencies --   1644.3690              1674.1255              1687.9545
 Red. masses --      5.9248                 7.3791                 6.1324
 Frc consts  --      9.4390                12.1850                10.2945
 IR Inten    --      3.2591                 1.2148                 4.6508

                     70                     71                     72
                      A                      A                      A
 Frequencies --   1767.6965              2182.9449              2928.5360
 Red. masses --      8.7337                11.4395                 1.0703
 Frc consts  --     16.0791                32.1176                 5.4083
 IR Inten    --    111.3945                 9.1193                50.4212

                     73                     74                     75
                      A                      A                      A
 Frequencies --   2966.5992              2977.7258              2990.3548
 Red. masses --      1.0797                 1.0477                 1.0841
 Frc consts  --      5.5984                 5.4734                 5.7116
 IR Inten    --      1.4090                69.1219                85.9627

                     76                     77                     78
                      A                      A                      A
 Frequencies --   3015.4952              3068.8924              3086.8640
 Red. masses --      1.0852                 1.0880                 1.1009
 Frc consts  --      5.8138                 6.0374                 6.1804
 IR Inten    --      5.2119                29.0147                16.5511

                     79                     80                     81
                      A                      A                      A
 Frequencies --   3126.2724              3152.0018              3153.4537
 Red. masses --      1.0876                 1.0879                 1.0910
 Frc consts  --      6.2630                 6.3681                 6.3924
 IR Inten    --      6.3878                 8.5074                10.5352

                     82                     83                     84
                      A                      A                      A
 Frequencies --   3156.3650              3164.7168              3187.6162
 Red. masses --      1.0888                 1.0857                 1.0883
 Frc consts  --      6.3910                 6.4065                 6.5154
 IR Inten    --      3.5975                13.6086                 5.8459

 - Thermochemistry -
 -------------------
 Temperature   298.150 Kelvin.  Pressure   1.00000 Atm.
 Atom     1 has atomic number  6 and mass  12.00000

 Molecular mass:   259.04894 amu.
 Principal axes and moments of inertia in atomic units:
                           1         2         3
     Eigenvalues --  2796.996279126.01013**********
           X            0.99995   0.00928   0.00238
           Y           -0.00928   0.99996  -0.00048
           Z           -0.00239   0.00046   1.00000
 This molecule is an asymmetric top.
 Rotational symmetry number  1.
 Warning -- assumption of classical behavior for rotation
           may cause significant error
 Rotational temperatures (Kelvin)      0.03097     0.00949     0.00774
 Rotational constants (GHZ):           0.64524     0.19776     0.16122
 Zero-point vibrational energy     586766.8 (Joules/Mol)
                                  140.24063 (Kcal/Mol)
 Warning -- explicit consideration of  29 degrees of freedom as
           vibrations may cause significant error
 Vibrational temperatures:     31.71    60.54    78.69    98.97    99.48
          (Kelvin)            127.41   149.50   179.00   203.82   210.90
                              267.60   283.61   311.72   314.70   329.18
                              337.30   363.94   436.20   457.24   490.15
                              518.36   529.07   561.42   626.18   697.25
                              719.39   797.36   831.67   880.11   977.21
                             1023.84  1079.64  1106.92  1201.64  1227.94
                             1266.50  1296.84  1318.71  1355.34  1403.97
                             1412.80  1474.75  1488.21  1515.06  1576.36
                             1605.83  1616.60  1644.82  1671.31  1673.30
                             1691.83  1761.57  1782.72  1807.55  1811.57
                             1841.23  1900.81  1908.92  1926.58  1955.07
                             1985.02  2000.75  2070.79  2087.77  2127.39
                             2151.86  2365.88  2408.69  2428.59  2543.32
                             3140.77  4213.51  4268.27  4284.28  4302.45
                             4338.63  4415.45  4441.31  4498.01  4535.03
                             4537.12  4541.31  4553.32  4586.27

 Zero-point correction=                           0.223488 (Hartree/Particle)
 Thermal correction to Energy=                    0.242367
 Thermal correction to Enthalpy=                  0.243311
 Thermal correction to Gibbs Free Energy=         0.174615
 Sum of electronic and zero-point Energies=          -1391.948268
 Sum of electronic and thermal Energies=             -1391.929389
 Sum of electronic and thermal Enthalpies=           -1391.928445
 Sum of electronic and thermal Free Energies=        -1391.997141

                     E (Thermal)             CV                S
                      KCal/Mol        Cal/Mol-Kelvin    Cal/Mol-Kelvin
 Total                  152.087             66.689            144.582
 Electronic               0.000              0.000              0.000
 Translational            0.889              2.981             42.555
 Rotational               0.889              2.981             34.012
 Vibrational            150.310             60.727             68.015
 Vibration     1          0.593              1.985              6.441
 Vibration     2          0.595              1.980              5.159
 Vibration     3          0.596              1.976              4.640
 Vibration     4          0.598              1.969              4.188
 Vibration     5          0.598              1.969              4.178
 Vibration     6          0.601              1.957              3.692
 Vibration     7          0.605              1.946              3.380
 Vibration     8          0.610              1.929              3.031
 Vibration     9          0.615              1.912              2.781
 Vibration    10          0.617              1.906              2.716
 Vibration    11          0.632              1.859              2.267
 Vibration    12          0.637              1.844              2.160
 Vibration    13          0.645              1.816              1.987
 Vibration    14          0.646              1.813              1.970
 Vibration    15          0.651              1.797              1.888
 Vibration    16          0.654              1.788              1.845
 Vibration    17          0.664              1.758              1.710
 Vibration    18          0.695              1.668              1.399
 Vibration    19          0.704              1.640              1.321
 Vibration    20          0.720              1.594              1.209
 Vibration    21          0.735              1.554              1.121
 Vibration    22          0.740              1.539              1.089
 Vibration    23          0.758              1.491              0.999
 Vibration    24          0.796              1.393              0.842
 Vibration    25          0.841              1.284              0.698
 Vibration    26          0.855              1.250              0.658
 Vibration    27          0.910              1.131              0.536
 Vibration    28          0.935              1.079              0.489
 Vibration    29          0.971              1.007              0.430

                           ! Non-Optimized Parameters !
 Normal termination of Gaussian 16 at Thu May 18 21:48:19 2023.
