 Gaussian 16, Revision A.03,
 Gaussian 16:  ES64L-G16RevA.03 25-Dec-2016

 -----------------------------
 # opt freq b3lyp/6-31g(2df,p)
 -----------------------------

 -------------------
 Title Card Required
 -------------------
 Symbolic Z-matrix:
 Charge =  0 Multiplicity = 2

 SCF Done:  E(UB3LYP) =  -798.245196582     A.U. after   24 cycles
 SCF Done:  E(UB3LYP) =  -798.262427441     A.U. after   16 cycles
 SCF Done:  E(UB3LYP) =  -798.268482837     A.U. after   16 cycles
 SCF Done:  E(UB3LYP) =  -798.274002745     A.U. after   15 cycles
 SCF Done:  E(UB3LYP) =  -798.280165572     A.U. after   15 cycles
 SCF Done:  E(UB3LYP) =  -798.282770034     A.U. after   15 cycles
 SCF Done:  E(UB3LYP) =  -798.284433518     A.U. after   16 cycles
 SCF Done:  E(UB3LYP) =  -798.284944257     A.U. after   16 cycles
 SCF Done:  E(UB3LYP) =  -798.285159914     A.U. after   13 cycles
 SCF Done:  E(UB3LYP) =  -798.285315132     A.U. after   14 cycles
 SCF Done:  E(UB3LYP) =  -798.290505556     A.U. after   17 cycles
 SCF Done:  E(UB3LYP) =  -798.290571288     A.U. after   14 cycles
 SCF Done:  E(UB3LYP) =  -798.290614950     A.U. after   16 cycles
 SCF Done:  E(UB3LYP) =  -798.290650743     A.U. after   12 cycles
 SCF Done:  E(UB3LYP) =  -798.290661700     A.U. after   11 cycles
 SCF Done:  E(UB3LYP) =  -798.290664525     A.U. after   12 cycles
 SCF Done:  E(UB3LYP) =  -798.290664924     A.U. after   11 cycles
 SCF Done:  E(UB3LYP) =  -798.290665004     A.U. after    9 cycles
 SCF Done:  E(UB3LYP) =  -798.290665029     A.U. after    9 cycles
 Optimization completed.
    -- Stationary point found.
 Normal termination of Gaussian 16 at Thu May 18 00:21:24 2023.

 ----------------------------------------------------------------------
 #N Geom=AllCheck Guess=TCheck SCRF=Check GenChk UB3LYP/6-31G(2df,p) Fr
 eq
 ----------------------------------------------------------------------

 Structure from the checkpoint file:  "CNNdCCCqCdNr[N]CdCCCdCCdCNN.chk"
 -------------------
 Title Card Required
 -------------------
 Charge =  0 Multiplicity = 2

                         Standard orientation:
 ---------------------------------------------------------------------
 Center     Atomic      Atomic             Coordinates (Angstroms)
 Number     Number       Type             X           Y           Z
 ---------------------------------------------------------------------
      1          6           0        7.779624   -1.471333   -0.393088
      2          7           0        6.625355   -1.623401    0.478426
      3          7           0        5.433492   -1.391956   -0.141241
      4          6           0        4.438876   -1.002510    0.556522
      5          6           0        3.089130   -0.812214   -0.064063
      6          6           0        2.586266    0.660255    0.002496
      7          6           0        3.492807    1.560028   -0.823530
      8          7           0        4.253635    2.483364   -0.405847
      9          7           0        1.257052    0.724636   -0.559332
     10          6           0        0.282053    1.097529    0.238355
     11          6           0       -1.036510    1.198913   -0.199874
     12          6           0       -2.188560    1.593286    0.673210
     13          6           0       -3.209170    0.486523    0.783693
     14          6           0       -4.469381    0.561626    0.328452
     15          6           0       -5.455533   -0.490226    0.398621
     16          6           0       -6.718824   -0.351248   -0.050935
     17          7           0       -7.737326   -1.276917    0.078308
     18          7           0       -8.750118   -1.358950   -0.909369
     19          1           0        8.670867   -1.803404    0.146708
     20          1           0        7.937010   -0.439084   -0.739240
     21          1           0        7.641759   -2.109754   -1.268620
     22          1           0        6.728919   -1.145067    1.373104
     23          1           0        4.541974   -0.794851    1.632323
     24          1           0        2.340510   -1.429356    0.449529
     25          1           0        3.122026   -1.135639   -1.107417
     26          1           0        2.622552    1.001244    1.054038
     27          1           0        3.459874    1.361962   -1.899126
     28          1           0        4.183215    2.573723    0.613487
     29          1           0        0.484982    1.348747    1.291012
     30          1           0       -1.243844    0.944326   -1.235663
     31          1           0       -2.678145    2.486233    0.258915
     32          1           0       -1.812768    1.870410    1.667868
     33          1           0       -2.861732   -0.435212    1.247684
     34          1           0       -4.796897    1.492956   -0.136296
     35          1           0       -5.154085   -1.433013    0.852864
     36          1           0       -7.039173    0.578069   -0.518311
     37          1           0       -7.449545   -2.200434    0.371823
     38          1           0       -8.364828   -1.160511   -1.831547
     39          1           0       -9.451962   -0.652549   -0.708904
 ---------------------------------------------------------------------

 SCF Done:  E(UB3LYP) =  -798.290665029     A.U. after    1 cycles

 The electronic state is 2-A.
 Alpha  occ. eigenvalues --  -14.37053 -14.35663 -14.35433 -14.34951 -14.32596
 Alpha  occ. eigenvalues --  -14.31018 -10.22041 -10.22024 -10.21893 -10.21502
 Alpha  occ. eigenvalues --  -10.20554 -10.20323 -10.20167 -10.19518 -10.18906
 Alpha  occ. eigenvalues --  -10.18497 -10.17892 -10.17616  -0.99117  -0.98696
 Alpha  occ. eigenvalues --   -0.92765  -0.88942  -0.83114  -0.82682  -0.80982
 Alpha  occ. eigenvalues --   -0.77663  -0.75250  -0.71184  -0.68026  -0.65144
 Alpha  occ. eigenvalues --   -0.63295  -0.59807  -0.58646  -0.57243  -0.55988
 Alpha  occ. eigenvalues --   -0.55366  -0.51760  -0.51483  -0.50207  -0.49575
 Alpha  occ. eigenvalues --   -0.48825  -0.47686  -0.46663  -0.44893  -0.43604
 Alpha  occ. eigenvalues --   -0.43520  -0.42595  -0.41961  -0.40379  -0.38837
 Alpha  occ. eigenvalues --   -0.38719  -0.38345  -0.37911  -0.36575  -0.35606
 Alpha  occ. eigenvalues --   -0.35112  -0.34732  -0.34372  -0.32866  -0.30547
 Alpha  occ. eigenvalues --   -0.28331  -0.27599  -0.26753  -0.26177  -0.25480
 Alpha  occ. eigenvalues --   -0.21426  -0.20342  -0.18665
 Alpha virt. eigenvalues --   -0.01203   0.00553   0.01299   0.04036   0.07532
 Alpha virt. eigenvalues --    0.08895   0.09126   0.09185   0.09565   0.10860
 Alpha virt. eigenvalues --    0.11497   0.12217   0.12392   0.13481   0.14292

  Beta  occ. eigenvalues --  -14.37042 -14.35662 -14.35428 -14.34938 -14.31621
  Beta  occ. eigenvalues --  -14.30992 -10.22008 -10.21997 -10.21931 -10.21779
  Beta  occ. eigenvalues --  -10.20551 -10.20323 -10.19569 -10.19269 -10.18834
  Beta  occ. eigenvalues --  -10.18472 -10.17833 -10.17621  -0.99098  -0.98680
  Beta  occ. eigenvalues --   -0.91560  -0.88537  -0.83041  -0.82614  -0.80424
  Beta  occ. eigenvalues --   -0.77318  -0.74941  -0.70683  -0.67933  -0.64904
  Beta  occ. eigenvalues --   -0.62792  -0.59723  -0.58555  -0.57120  -0.55741
  Beta  occ. eigenvalues --   -0.54919  -0.51697  -0.51458  -0.50175  -0.49439
  Beta  occ. eigenvalues --   -0.48561  -0.47462  -0.46487  -0.44831  -0.43559
  Beta  occ. eigenvalues --   -0.43110  -0.42188  -0.41523  -0.40300  -0.38787
  Beta  occ. eigenvalues --   -0.38510  -0.38046  -0.37659  -0.36388  -0.35192
  Beta  occ. eigenvalues --   -0.34878  -0.34475  -0.34238  -0.30822  -0.30403
  Beta  occ. eigenvalues --   -0.28209  -0.27579  -0.26635  -0.25352  -0.24929
  Beta  occ. eigenvalues --   -0.21030  -0.18995
  Beta virt. eigenvalues --   -0.09082  -0.00992   0.00892   0.01369   0.06396
  Beta virt. eigenvalues --    0.07741   0.08905   0.09140   0.09449   0.09588
  Beta virt. eigenvalues --    0.10895   0.11478   0.12305   0.12481   0.13511

 Mulliken charges and spin densities:
               1          2
     1  C   -0.290731   0.000169
     2  N   -0.221272   0.001937
     3  N   -0.111655   0.005333
     4  C   -0.002188   0.000934
     5  C   -0.251903   0.026973
     6  C   -0.040497  -0.022010
     7  C    0.099021   0.015058
     8  N   -0.404602   0.012328
     9  N   -0.205419   0.488413
    10  C    0.035209  -0.182231
    11  C   -0.070435   0.633939
    12  C   -0.299757  -0.029889
    13  C   -0.085895   0.011585
    14  C   -0.023242   0.018009
    15  C   -0.166010  -0.004339
    16  C    0.049608   0.010119
    17  N   -0.280711   0.004314
    18  N   -0.461979  -0.000059
    19  H    0.118578  -0.000010
    20  H    0.116918   0.000130
    21  H    0.142384   0.000049
    22  H    0.216952   0.000133
    23  H    0.062102   0.000026
    24  H    0.109092   0.000207
    25  H    0.128633  -0.001181
    26  H    0.053094  -0.000146
    27  H    0.119523   0.000317
    28  H    0.211282   0.000525
    29  H    0.070483   0.004391
    30  H    0.111423  -0.023077
    31  H    0.111413   0.025837
    32  H    0.104143   0.000748
    33  H    0.078932   0.001496
    34  H    0.070538  -0.000252
    35  H    0.071813   0.000164
    36  H    0.095787  -0.000398
    37  H    0.250700  -0.000066
    38  H    0.237586   0.000463
    39  H    0.251083   0.000060
 Sum of Mulliken charges =  -0.00000   1.00000

 Dipole moment (field-independent basis, Debye):
    X=             -3.1913    Y=             -0.2670    Z=              2.0206  Tot=              3.7866
 Quadrupole moment (field-independent basis, Debye-Ang):
   XX=            -87.5414   YY=           -115.8651   ZZ=           -105.2971
   XY=             -9.8591   XZ=             19.9096   YZ=              1.6077

  Exact polarizability: 402.146  14.666 145.377  16.107   4.124 133.948
 Approx polarizability: 465.902  19.961 216.197  26.044  11.236 218.776

                      1                      2                      3
                      A                      A                      A
 Frequencies --     10.7741                19.5124                23.2912
 Red. masses --      5.4935                 3.9277                 3.6292
 Frc consts  --      0.0004                 0.0009                 0.0012
 IR Inten    --      0.1650                 1.0841                 0.6045

                      4                      5                      6
                      A                      A                      A
 Frequencies --     28.8410                40.5427                62.8050
 Red. masses --      3.7258                 4.3965                 3.2060
 Frc consts  --      0.0018                 0.0043                 0.0075
 IR Inten    --      0.5366                 0.6992                 1.1121

                      7                      8                      9
                      A                      A                      A
 Frequencies --     83.8788                88.6882                95.2272
 Red. masses --      3.2214                 3.4953                 2.4497
 Frc consts  --      0.0134                 0.0162                 0.0131
 IR Inten    --      2.5224                 2.7212                 6.9997

                     10                     11                     12
                      A                      A                      A
 Frequencies --    113.9017               139.5528               154.7311
 Red. masses --      2.5127                 3.8120                 1.8715
 Frc consts  --      0.0192                 0.0437                 0.0264
 IR Inten    --      0.5604                 7.4733                 6.0707

                     13                     14                     15
                      A                      A                      A
 Frequencies --    166.9582               189.0269               204.3250
 Red. masses --      3.0522                 2.4926                 2.3450
 Frc consts  --      0.0501                 0.0525                 0.0577
 IR Inten    --     12.2550                 5.5415                 4.1637

                     16                     17                     18
                      A                      A                      A
 Frequencies --    211.4278               220.0497               240.3399
 Red. masses --      2.7691                 1.9684                 2.9717
 Frc consts  --      0.0729                 0.0562                 0.1011
 IR Inten    --      1.7002                 5.7653                 5.8843

                     19                     20                     21
                      A                      A                      A
 Frequencies --    280.4029               288.0627               304.0798
 Red. masses --      1.6990                 2.3034                 2.9173
 Frc consts  --      0.0787                 0.1126                 0.1589
 IR Inten    --     15.7442                 3.0755                 1.2248

                     22                     23                     24
                      A                      A                      A
 Frequencies --    318.2823               359.4953               366.6409
 Red. masses --      2.7474                 4.3587                 1.9161
 Frc consts  --      0.1640                 0.3319                 0.1518
 IR Inten    --      2.1898                 3.1194                31.1652

                     25                     26                     27
                      A                      A                      A
 Frequencies --    399.1869               457.4530               464.1242
 Red. masses --      4.0171                 3.9706                 2.8040
 Frc consts  --      0.3771                 0.4896                 0.3559
 IR Inten    --     14.8771                 0.5142                45.2653

                     28                     29                     30
                      A                      A                      A
 Frequencies --    473.6691               490.8615               520.1321
 Red. masses --      3.3693                 2.8925                 3.1048
 Frc consts  --      0.4454                 0.4106                 0.4949
 IR Inten    --     44.1215                28.5016                24.7427

                     31                     32                     33
                      A                      A                      A
 Frequencies --    554.5295               572.9876               629.1635
 Red. masses --      2.9700                 2.5347                 3.0993
 Frc consts  --      0.5381                 0.4903                 0.7228
 IR Inten    --      5.3622                34.0136                23.4924

                     34                     35                     36
                      A                      A                      A
 Frequencies --    665.6593               701.6683               798.4769
 Red. masses --      1.5883                 1.5602                 1.4223
 Frc consts  --      0.4147                 0.4526                 0.5343
 IR Inten    --    274.1831               109.3864                13.2530

                     37                     38                     39
                      A                      A                      A
 Frequencies --    811.4496               824.1727               852.7499
 Red. masses --      1.8899                 1.6608                 1.9997
 Frc consts  --      0.7332                 0.6647                 0.8568
 IR Inten    --      5.3212                11.7311                 7.2451

                     40                     41                     42
                      A                      A                      A
 Frequencies --    872.4627               892.2223               914.2072
 Red. masses --      1.9979                 1.8681                 1.5859
 Frc consts  --      0.8960                 0.8762                 0.7809
 IR Inten    --      3.3736                33.2538                53.6627

                     43                     44                     45
                      A                      A                      A
 Frequencies --    930.1942               960.7367               971.8110
 Red. masses --      1.6909                 1.1257                 1.8890
 Frc consts  --      0.8620                 0.6122                 1.0511
 IR Inten    --     15.7941                 9.0355                10.2130

                     46                     47                     48
                      A                      A                      A
 Frequencies --    979.8427              1017.5495              1024.5021
 Red. masses --      1.6296                 2.8714                 1.1367
 Frc consts  --      0.9218                 1.7517                 0.7030
 IR Inten    --      5.6948                 1.7604                42.1773

                     49                     50                     51
                      A                      A                      A
 Frequencies --   1030.0541              1040.9484              1054.6280
 Red. masses --      2.6144                 2.7329                 3.7864
 Frc consts  --      1.6343                 1.7448                 2.4813
 IR Inten    --      3.3219                 3.4556                 7.2882

                     52                     53                     54
                      A                      A                      A
 Frequencies --   1094.1116              1109.6297              1142.1482
 Red. masses --      2.4545                 2.1469                 1.1026
 Frc consts  --      1.7311                 1.5575                 0.8475
 IR Inten    --     22.9768                 4.6792                34.5418

                     55                     56                     57
                      A                      A                      A
 Frequencies --   1143.4875              1146.1064              1173.2489
 Red. masses --      2.6283                 1.3731                 1.6571
 Frc consts  --      2.0248                 1.0627                 1.3440
 IR Inten    --     37.2028                62.3977                 2.2084

                     58                     59                     60
                      A                      A                      A
 Frequencies --   1176.3423              1184.8780              1218.0858
 Red. masses --      1.6719                 2.0299                 1.7282
 Frc consts  --      1.3631                 1.6791                 1.5108
 IR Inten    --     20.5545                79.9969                32.2277

                     61                     62                     63
                      A                      A                      A
 Frequencies --   1226.3250              1237.3490              1245.2303
 Red. masses --      1.5948                 1.9370                 2.4653
 Frc consts  --      1.4131                 1.7473                 2.2522
 IR Inten    --     12.5708                26.3462               147.2976

                     64                     65                     66
                      A                      A                      A
 Frequencies --   1263.7814              1268.2222              1284.3132
 Red. masses --      1.5002                 1.5069                 1.2906
 Frc consts  --      1.4117                 1.4280                 1.2543
 IR Inten    --     57.9785                10.4663                41.0777

                     67                     68                     69
                      A                      A                      A
 Frequencies --   1289.8148              1318.0385              1320.8475
 Red. masses --      1.2978                 1.3509                 1.4135
 Frc consts  --      1.2721                 1.3827                 1.4529
 IR Inten    --     12.9100                45.1616                 9.8185

                     70                     71                     72
                      A                      A                      A
 Frequencies --   1326.5490              1330.2726              1334.9418
 Red. masses --      1.2410                 1.2646                 1.2712
 Frc consts  --      1.2867                 1.3185                 1.3347
 IR Inten    --     11.5839                 5.5539                11.3626

                     73                     74                     75
                      A                      A                      A
 Frequencies --   1360.9734              1368.1314              1376.5743
 Red. masses --      1.4048                 1.4190                 1.3886
 Frc consts  --      1.5331                 1.5649                 1.5504
 IR Inten    --     24.9786                33.8032                31.9672

                     76                     77                     78
                      A                      A                      A
 Frequencies --   1404.9535              1418.3136              1448.3609
 Red. masses --      1.2723                 3.6037                 1.1520
 Frc consts  --      1.4797                 4.2712                 1.4239
 IR Inten    --     23.6745                18.9955                 2.0106

                     79                     80                     81
                      A                      A                      A
 Frequencies --   1462.5477              1471.0538              1485.5034
 Red. masses --      1.1099                 1.0972                 1.2706
 Frc consts  --      1.3988                 1.3989                 1.6520
 IR Inten    --      5.2838                 4.4859                 1.5534

                     82                     83                     84
                      A                      A                      A
 Frequencies --   1486.7510              1497.9249              1501.9119
 Red. masses --      1.0754                 2.1274                 1.1658
 Frc consts  --      1.4006                 2.8124                 1.5494
 IR Inten    --     23.0877                13.1671                 1.6686

                     85                     86                     87
                      A                      A                      A
 Frequencies --   1528.4621              1682.2895              1687.3603
 Red. masses --      1.1673                 1.9621                 1.7512
 Frc consts  --      1.6067                 3.2718                 2.9376
 IR Inten    --     26.1916               141.4559                10.5931

                     88                     89                     90
                      A                      A                      A
 Frequencies --   1705.4160              1710.1677              1726.2324
 Red. masses --      7.9869                 4.0985                 8.4994
 Frc consts  --     13.6863                 7.0625                14.9223
 IR Inten    --     32.2402               314.2757                64.8089

                     91                     92                     93
                      A                      A                      A
 Frequencies --   2921.3874              2991.6715              2993.8961
 Red. masses --      1.0816                 1.0693                 1.0512
 Frc consts  --      5.4387                 5.6386                 5.5517
 IR Inten    --     46.7878                 8.8790                89.6679

                     94                     95                     96
                      A                      A                      A
 Frequencies --   2996.1180              2996.9164              3023.9466
 Red. masses --      1.0774                 1.0775                 1.0673
 Frc consts  --      5.6981                 5.7017                 5.7501
 IR Inten    --     14.4617                98.4755                17.7972

                     97                     98                     99
                      A                      A                      A
 Frequencies --   3034.4063              3086.1259              3093.6112
 Red. masses --      1.1012                 1.0832                 1.0882
 Frc consts  --      5.9737                 6.0783                 6.1359
 IR Inten    --     23.4889                36.3403                16.9534

                    100                    101                    102
                      A                      A                      A
 Frequencies --   3108.9079              3113.4156              3131.1625
 Red. masses --      1.0948                 1.0872                 1.1024
 Frc consts  --      6.2343                 6.2092                 6.3681
 IR Inten    --     12.2558                 9.3233                13.9935

                    103                    104                    105
                      A                      A                      A
 Frequencies --   3134.6325              3140.8193              3152.3593
 Red. masses --      1.0889                 1.0873                 1.0877
 Frc consts  --      6.3037                 6.3195                 6.3683
 IR Inten    --      5.3758                39.0284                16.5189

                    106                    107                    108
                      A                      A                      A
 Frequencies --   3176.3453              3397.0746              3433.9163
 Red. masses --      1.0869                 1.0734                 1.0736
 Frc consts  --      6.4607                 7.2981                 7.4587
 IR Inten    --      5.1832                 5.3619                 5.0284

                    109                    110                    111
                      A                      A                      A
 Frequencies --   3442.9730              3539.2384              3576.5861
 Red. masses --      1.0490                 1.0932                 1.0758
 Frc consts  --      7.3265                 8.0680                 8.1082
 IR Inten    --     22.9165                 6.5426                32.1255

 - Thermochemistry -
 -------------------
 Temperature   298.150 Kelvin.  Pressure   1.00000 Atm.
 Atom     1 has atomic number  6 and mass  12.00000

 Molecular mass:   249.18277 amu.
 Principal axes and moments of inertia in atomic units:
                           1         2         3
     Eigenvalues --  1734.07974********************
           X            0.99999  -0.00268   0.00193
           Y            0.00265   0.99991   0.01311
           Z           -0.00197  -0.01310   0.99991
 This molecule is an asymmetric top.
 Rotational symmetry number  1.
 Warning -- assumption of classical behavior for rotation
           may cause significant error
 Rotational temperatures (Kelvin)      0.04995     0.00368     0.00351
 Rotational constants (GHZ):           1.04075     0.07676     0.07312
 Zero-point vibrational energy     864651.5 (Joules/Mol)
                                  206.65667 (Kcal/Mol)
 Warning -- explicit consideration of  32 degrees of freedom as
           vibrations may cause significant error
 Vibrational temperatures:     15.50    28.07    33.51    41.50    58.33
          (Kelvin)             90.36   120.68   127.60   137.01   163.88
                              200.79   222.62   240.22   271.97   293.98
                              304.20   316.60   345.80   403.44   414.46
                              437.50   457.94   517.23   527.51   574.34
                              658.17   667.77   681.50   706.24   748.35
                              797.84   824.40   905.23   957.74  1009.54
                             1148.83  1167.50  1185.80  1226.92  1255.28
                             1283.71  1315.34  1338.34  1382.29  1398.22
                             1409.78  1464.03  1474.03  1482.02  1497.69
                             1517.37  1574.18  1596.51  1643.30  1645.22
                             1648.99  1688.04  1692.49  1704.78  1752.55
                             1764.41  1780.27  1791.61  1818.30  1824.69
                             1847.84  1855.76  1896.36  1900.40  1908.61
                             1913.97  1920.68  1958.14  1968.44  1980.58
                             2021.41  2040.64  2083.87  2104.28  2116.52
                             2137.31  2139.10  2155.18  2160.92  2199.12
                             2420.44  2427.74  2453.71  2460.55  2483.66
                             4203.22  4304.35  4307.55  4310.75  4311.89
                             4350.78  4365.83  4440.25  4451.02  4473.03
                             4479.51  4505.04  4510.04  4518.94  4535.54
                             4570.05  4887.63  4940.64  4953.67  5092.17
                             5145.91

 Zero-point correction=                           0.329328 (Hartree/Particle)
 Thermal correction to Energy=                    0.350855
 Thermal correction to Enthalpy=                  0.351799
 Thermal correction to Gibbs Free Energy=         0.273243
 Sum of electronic and zero-point Energies=           -797.961337
 Sum of electronic and thermal Energies=              -797.939810
 Sum of electronic and thermal Enthalpies=            -797.938866
 Sum of electronic and thermal Free Energies=         -798.017422

                     E (Thermal)             CV                S
                      KCal/Mol        Cal/Mol-Kelvin    Cal/Mol-Kelvin
 Total                  220.165             75.889            165.335
 Electronic               0.000              0.000              1.377
 Translational            0.889              2.981             42.440
 Rotational               0.889              2.981             35.263
 Vibrational            218.387             69.927             86.255
 Vibration     1          0.593              1.987              7.863
 Vibration     2          0.593              1.986              6.683
 Vibration     3          0.593              1.985              6.332
 Vibration     4          0.593              1.984              5.908
 Vibration     5          0.594              1.981              5.232
 Vibration     6          0.597              1.972              4.367
 Vibration     7          0.601              1.960              3.798
 Vibration     8          0.602              1.957              3.689
 Vibration     9          0.603              1.953              3.550
 Vibration    10          0.607              1.938              3.201
 Vibration    11          0.615              1.914              2.810
 Vibration    12          0.620              1.897              2.613
 Vibration    13          0.624              1.883              2.469
 Vibration    14          0.633              1.855              2.237
 Vibration    15          0.640              1.834              2.094
 Vibration    16          0.643              1.823              2.031
 Vibration    17          0.647              1.811              1.959
 Vibration    18          0.657              1.779              1.800
 Vibration    19          0.680              1.710              1.531
 Vibration    20          0.685              1.696              1.485
 Vibration    21          0.695              1.666              1.394
 Vibration    22          0.705              1.639              1.319
 Vibration    23          0.734              1.556              1.124
 Vibration    24          0.740              1.541              1.094
 Vibration    25          0.765              1.472              0.966
 Vibration    26          0.816              1.344              0.774
 Vibration    27          0.822              1.330              0.754
 Vibration    28          0.830              1.308              0.727
 Vibration    29          0.847              1.270              0.681
 Vibration    30          0.875              1.205              0.610
 Vibration    31          0.910              1.130              0.535
 Vibration    32          0.929              1.090              0.499

                           ! Non-Optimized Parameters !
 Normal termination of Gaussian 16 at Thu May 18 05:55:05 2023.
