 Gaussian 16, Revision A.03,
 Gaussian 16:  ES64L-G16RevA.03 25-Dec-2016

 -----------------------------
 # opt freq b3lyp/6-31g(2df,p)
 -----------------------------

 -------------------
 Title Card Required
 -------------------
 Symbolic Z-matrix:
 Charge =  0 Multiplicity = 1

 SCF Done:  E(RB3LYP) =  -972.712251116     A.U. after   27 cycles
 SCF Done:  E(RB3LYP) =  -972.800784931     A.U. after   16 cycles
 SCF Done:  E(RB3LYP) =  -972.927771428     A.U. after   18 cycles
 SCF Done:  E(RB3LYP) =  -972.970670050     A.U. after   17 cycles
 SCF Done:  E(RB3LYP) =  -973.036515977     A.U. after   17 cycles
 SCF Done:  E(RB3LYP) =  -973.078890145     A.U. after   17 cycles
 SCF Done:  E(RB3LYP) =  -973.114584449     A.U. after   16 cycles
 SCF Done:  E(RB3LYP) =  -973.146307484     A.U. after   17 cycles
 SCF Done:  E(RB3LYP) =  -973.182473771     A.U. after   17 cycles
 SCF Done:  E(RB3LYP) =  -973.202081017     A.U. after   15 cycles
 SCF Done:  E(RB3LYP) =  -973.245910900     A.U. after   12 cycles
 SCF Done:  E(RB3LYP) =  -973.246246043     A.U. after   12 cycles
 SCF Done:  E(RB3LYP) =  -973.246356658     A.U. after   11 cycles
 SCF Done:  E(RB3LYP) =  -973.246481572     A.U. after   11 cycles
 SCF Done:  E(RB3LYP) =  -973.246524046     A.U. after   10 cycles
 SCF Done:  E(RB3LYP) =  -973.246528066     A.U. after    9 cycles
 SCF Done:  E(RB3LYP) =  -973.246529106     A.U. after    8 cycles
 SCF Done:  E(RB3LYP) =  -973.246529542     A.U. after    8 cycles
 SCF Done:  E(RB3LYP) =  -973.246529623     A.U. after    7 cycles
 Optimization completed.
    -- Stationary point found.
 Normal termination of Gaussian 16 at Fri May 19 05:45:39 2023.

 ----------------------------------------------------------------------
 #N Geom=AllCheck Guess=TCheck SCRF=Check GenChk RB3LYP/6-31G(2df,p) Fr
 eq
 ----------------------------------------------------------------------

 Structure from the checkpoint file:  "CNqCrC1dCCdCc2cscqc2rCdC1N.chk"
 -------------------
 Title Card Required
 -------------------
 Charge =  0 Multiplicity = 1

                         Standard orientation:
 ---------------------------------------------------------------------
 Center     Atomic      Atomic             Coordinates (Angstroms)
 Number     Number       Type             X           Y           Z
 ---------------------------------------------------------------------
      1          6           0        3.374226    0.460264    1.216085
      2          7           0        2.913596   -0.085408   -0.061768
      3          6           0        3.737451   -1.192188   -0.509734
      4          6           0        1.507430   -0.174528   -0.246907
      5          6           0        0.960083   -1.411560   -0.490341
      6          6           0       -0.451621   -1.568090   -0.679931
      7          6           0       -1.342694   -2.308064    0.054980
      8          6           0       -2.353168   -1.291274    0.536338
      9          6           0       -3.352929   -0.708654   -0.182181
     10         16           0       -3.135791    1.032423   -0.280294
     11          6           0       -1.559282    0.917205    0.587804
     12          6           0       -1.501689   -0.299025    1.185972
     13          6           0       -0.403320    1.657885    0.154099
     14          6           0        0.846725    1.195001   -0.221271
     15          7           0        1.764269    2.191024   -0.598616
     16          1           0        3.307092   -0.287511    2.023448
     17          1           0        2.782419    1.332015    1.489791
     18          1           0        4.420506    0.769357    1.124365
     19          1           0        4.780413   -0.859957   -0.544704
     20          1           0        3.431692   -1.504337   -1.510876
     21          1           0        3.697085   -2.073100    0.154788
     22          1           0        1.577918   -2.281966   -0.294301
     23          1           0       -0.891063   -0.708351   -1.177848
     24          1           0       -1.050748   -3.183085    0.630189
     25          1           0       -4.064288   -1.182320   -0.843069
     26          1           0       -0.632947   -0.599383    1.757504
     27          1           0       -0.551362    2.719892   -0.046132
     28          1           0        1.348680    3.065867   -0.880592
     29          1           0        2.504926    1.872955   -1.204651
 ---------------------------------------------------------------------

 SCF Done:  E(RB3LYP) =  -973.246529624     A.U. after    1 cycles

 The electronic state is 1-A.
 Alpha  occ. eigenvalues --  -88.88299 -14.34762 -14.33119 -10.23845 -10.23417
 Alpha  occ. eigenvalues --  -10.21465 -10.20890 -10.20124 -10.19853 -10.19459
 Alpha  occ. eigenvalues --  -10.18970 -10.18807 -10.18711 -10.18539 -10.17206
 Alpha  occ. eigenvalues --   -7.94454  -5.90860  -5.90530  -5.90172  -0.95169
 Alpha  occ. eigenvalues --   -0.90527  -0.87258  -0.80559  -0.77571  -0.74140
 Alpha  occ. eigenvalues --   -0.72005  -0.69933  -0.68988  -0.64977  -0.61000
 Alpha  occ. eigenvalues --   -0.57630  -0.55929  -0.53188  -0.51509  -0.50555
 Alpha  occ. eigenvalues --   -0.49265  -0.47023  -0.46277  -0.45795  -0.43965
 Alpha  occ. eigenvalues --   -0.42963  -0.41647  -0.39915  -0.39622  -0.39012
 Alpha  occ. eigenvalues --   -0.38712  -0.37968  -0.36323  -0.36129  -0.34560
 Alpha  occ. eigenvalues --   -0.33895  -0.31113  -0.29517  -0.26316  -0.23578
 Alpha  occ. eigenvalues --   -0.21608  -0.18929  -0.17918
 Alpha virt. eigenvalues --   -0.04157  -0.01886  -0.01462   0.03788   0.05231
 Alpha virt. eigenvalues --    0.07505   0.08104   0.10107   0.12411   0.12666
 Alpha virt. eigenvalues --    0.13215   0.13448   0.14375   0.14633   0.15105

 Mulliken charges:
               1
     1  C   -0.332283
     2  N   -0.094182
     3  C   -0.329693
     4  C    0.204591
     5  C   -0.221043
     6  C   -0.063749
     7  C   -0.228771
     8  C    0.092520
     9  C   -0.177461
    10  S   -0.113205
    11  C    0.108426
    12  C   -0.177121
    13  C   -0.226499
    14  C    0.222836
    15  N   -0.528220
    16  H    0.106349
    17  H    0.155992
    18  H    0.118419
    19  H    0.119768
    20  H    0.133693
    21  H    0.108717
    22  H    0.094082
    23  H    0.128869
    24  H    0.097794
    25  H    0.125924
    26  H    0.105415
    27  H    0.074377
    28  H    0.245306
    29  H    0.249148
 Sum of Mulliken charges =  -0.00000

 Dipole moment (field-independent basis, Debye):
    X=              4.0043    Y=             -0.0383    Z=             -0.8634  Tot=              4.0965
 Quadrupole moment (field-independent basis, Debye-Ang):
   XX=            -92.8809   YY=            -90.6327   ZZ=            -96.3772
   XY=              1.5591   XZ=              1.3368   YZ=             -3.5543

  Exact polarizability: 238.992   9.498 171.015   2.110  -5.979 103.428
 Approx polarizability: 390.901  41.699 347.571  -5.590 -21.885 191.722

                      1                      2                      3
                      A                      A                      A
 Frequencies --     51.9020                90.7502               134.9978
 Red. masses --      4.3593                 3.3666                 3.6888
 Frc consts  --      0.0069                 0.0163                 0.0396
 IR Inten    --      0.1119                 0.2783                 1.1018

                      4                      5                      6
                      A                      A                      A
 Frequencies --    143.0439               181.1208               228.1384
 Red. masses --      4.3320                 1.2770                 3.3092
 Frc consts  --      0.0522                 0.0247                 0.1015
 IR Inten    --      0.2866                 1.5057                 3.6567

                      7                      8                      9
                      A                      A                      A
 Frequencies --    231.2552               256.0928               263.1929
 Red. masses --      3.9819                 3.1944                 3.3650
 Frc consts  --      0.1255                 0.1234                 0.1373
 IR Inten    --      1.7708                 2.0398                 3.0329

                     10                     11                     12
                      A                      A                      A
 Frequencies --    293.6833               316.1903               322.8711
 Red. masses --      2.6940                 1.2478                 1.9962
 Frc consts  --      0.1369                 0.0735                 0.1226
 IR Inten    --      7.4279                 0.7927                 2.0341

                     13                     14                     15
                      A                      A                      A
 Frequencies --    349.1765               387.0333               398.7098
 Red. masses --      3.2322                 2.1157                 2.1388
 Frc consts  --      0.2322                 0.1867                 0.2003
 IR Inten    --      6.4294                12.9454                 4.9528

                     16                     17                     18
                      A                      A                      A
 Frequencies --    414.1156               427.5139               487.0663
 Red. masses --      2.4648                 2.8348                 3.1864
 Frc consts  --      0.2490                 0.3053                 0.4454
 IR Inten    --     10.5055                 3.3901                24.9330

                     19                     20                     21
                      A                      A                      A
 Frequencies --    510.1244               523.9102               538.5201
 Red. masses --      3.9861                 3.8345                 2.8709
 Frc consts  --      0.6111                 0.6201                 0.4905
 IR Inten    --     10.7170                43.3044                43.5468

                     22                     23                     24
                      A                      A                      A
 Frequencies --    553.8178               565.3374               628.0826
 Red. masses --      4.0789                 4.3125                 3.4679
 Frc consts  --      0.7371                 0.8121                 0.8060
 IR Inten    --     47.0463               110.3816                25.0259

                     25                     26                     27
                      A                      A                      A
 Frequencies --    642.0915               667.2589               703.4503
 Red. masses --      3.8750                 4.4004                 3.5607
 Frc consts  --      0.9413                 1.1543                 1.0381
 IR Inten    --     65.5630                15.4525                29.4299

                     28                     29                     30
                      A                      A                      A
 Frequencies --    730.9554               748.5550               766.0627
 Red. masses --      1.7198                 3.2391                 3.5873
 Frc consts  --      0.5414                 1.0694                 1.2404
 IR Inten    --     27.3014                17.2057                 1.6057

                     31                     32                     33
                      A                      A                      A
 Frequencies --    795.5561               818.1328               853.4164
 Red. masses --      2.2526                 2.4233                 1.8312
 Frc consts  --      0.8400                 0.9557                 0.7858
 IR Inten    --    104.2960                45.0350                10.5466

                     34                     35                     36
                      A                      A                      A
 Frequencies --    857.6085               906.6377               915.6120
 Red. masses --      1.5588                 1.5154                 3.4146
 Frc consts  --      0.6755                 0.7339                 1.6866
 IR Inten    --     44.5220                47.3306                14.5535

                     37                     38                     39
                      A                      A                      A
 Frequencies --    974.3572              1059.0180              1073.9847
 Red. masses --      3.3683                 1.9783                 1.5988
 Frc consts  --      1.8841                 1.3072                 1.0865
 IR Inten    --      9.7478                 3.2742                12.9537

                     40                     41                     42
                      A                      A                      A
 Frequencies --   1076.5420              1083.5511              1111.1072
 Red. masses --      1.6126                 1.8986                 1.6217
 Frc consts  --      1.1012                 1.3134                 1.1796
 IR Inten    --     11.9956                29.7804               135.3202

                     43                     44                     45
                      A                      A                      A
 Frequencies --   1124.2606              1172.3130              1181.7565
 Red. masses --      1.3718                 1.9903                 1.9451
 Frc consts  --      1.0216                 1.6116                 1.6004
 IR Inten    --     27.8646                14.9968                10.8139

                     46                     47                     48
                      A                      A                      A
 Frequencies --   1184.4726              1202.9621              1223.9174
 Red. masses --      1.6182                 1.3918                 2.9939
 Frc consts  --      1.3376                 1.1867                 2.6424
 IR Inten    --     18.4800                 0.6203                59.9640

                     49                     50                     51
                      A                      A                      A
 Frequencies --   1230.5756              1251.2790              1304.7927
 Red. masses --      1.8928                 2.2308                 1.8415
 Frc consts  --      1.6887                 2.0578                 1.8472
 IR Inten    --     17.8541                17.8405                 1.1815

                     52                     53                     54
                      A                      A                      A
 Frequencies --   1328.3530              1341.2503              1364.9109
 Red. masses --      1.8428                 2.2933                 1.3927
 Frc consts  --      1.9158                 2.4307                 1.5286
 IR Inten    --     26.5858                50.3912                19.6335

                     55                     56                     57
                      A                      A                      A
 Frequencies --   1417.5195              1442.9404              1464.6762
 Red. masses --      1.6528                 1.1455                 1.1638
 Frc consts  --      1.9567                 1.4053                 1.4710
 IR Inten    --     11.9907                 0.3640                 2.4695

                     58                     59                     60
                      A                      A                      A
 Frequencies --   1481.7279              1491.0004              1500.8034
 Red. masses --      1.0850                 1.0503                 1.1735
 Frc consts  --      1.4035                 1.3757                 1.5574
 IR Inten    --      7.2342                21.0214                26.2108

                     61                     62                     63
                      A                      A                      A
 Frequencies --   1510.3717              1516.6245              1532.0101
 Red. masses --      4.4875                 1.6978                 1.8879
 Frc consts  --      6.0314                 2.3009                 2.6107
 IR Inten    --     22.0444                 6.7274                38.6933

                     64                     65                     66
                      A                      A                      A
 Frequencies --   1542.7879              1572.6127              1592.6116
 Red. masses --      3.2870                 5.5579                 3.2368
 Frc consts  --      4.6096                 8.0984                 4.8372
 IR Inten    --     26.5083                 4.2029                27.5961

                     67                     68                     69
                      A                      A                      A
 Frequencies --   1625.9016              2949.3088              2971.1166
 Red. masses --      1.3174                 1.0585                 1.0567
 Frc consts  --      2.0520                 5.4249                 5.4961
 IR Inten    --     99.9001                56.5510                89.8003

                     70                     71                     72
                      A                      A                      A
 Frequencies --   3058.3696              3071.8733              3099.6403
 Red. masses --      1.0752                 1.0834                 1.0840
 Frc consts  --      5.9257                 6.0232                 6.1365
 IR Inten    --     37.8179                44.1704                32.1502

                     73                     74                     75
                      A                      A                      A
 Frequencies --   3120.1018              3145.6185              3154.0733
 Red. masses --      1.1006                 1.0872                 1.0868
 Frc consts  --      6.3125                 6.3383                 6.3699
 IR Inten    --     16.4128                12.3888                15.0938

                     76                     77                     78
                      A                      A                      A
 Frequencies --   3162.5874              3173.4113              3203.5904
 Red. masses --      1.0954                 1.0862                 1.0910
 Frc consts  --      6.4552                 6.4448                 6.5971
 IR Inten    --      5.5971                10.9054                 6.0432

                     79                     80                     81
                      A                      A                      A
 Frequencies --   3238.2159              3564.8979              3680.1142
 Red. masses --      1.0934                 1.0458                 1.0996
 Frc consts  --      6.7551                 7.8305                 8.7746
 IR Inten    --      1.3161                20.0398                16.0033

 - Thermochemistry -
 -------------------
 Temperature   298.150 Kelvin.  Pressure   1.00000 Atm.
 Atom     1 has atomic number  6 and mass  12.00000

 Molecular mass:   218.08777 amu.
 Principal axes and moments of inertia in atomic units:
                           1         2         3
     Eigenvalues --  1626.954314672.705725717.05105
           X            0.99998   0.00204   0.00583
           Y           -0.00202   0.99999  -0.00323
           Z           -0.00584   0.00322   0.99998
 This molecule is an asymmetric top.
 Rotational symmetry number  1.
 Warning -- assumption of classical behavior for rotation
           may cause significant error
 Rotational temperatures (Kelvin)      0.05324     0.01854     0.01515
 Rotational constants (GHZ):           1.10928     0.38623     0.31568
 Zero-point vibrational energy     617727.0 (Joules/Mol)
                                  147.64030 (Kcal/Mol)
 Warning -- explicit consideration of  23 degrees of freedom as
           vibrations may cause significant error
 Vibrational temperatures:     74.68   130.57   194.23   205.81   260.59
          (Kelvin)            328.24   332.72   368.46   378.68   422.54
                              454.93   464.54   502.39   556.85   573.65
                              595.82   615.10   700.78   733.96   753.79
                              774.81   796.82   813.39   903.67   923.83
                              960.04  1012.11  1051.68  1077.00  1102.19
                             1144.63  1177.11  1227.88  1233.91  1304.45
                             1317.36  1401.88  1523.69  1545.22  1548.90
                             1558.99  1598.64  1617.56  1686.70  1700.28
                             1704.19  1730.79  1760.94  1770.52  1800.31
                             1877.31  1911.20  1929.76  1963.80  2039.49
                             2076.07  2107.34  2131.88  2145.22  2159.32
                             2173.09  2182.08  2204.22  2219.73  2262.64
                             2291.41  2339.31  4243.40  4274.77  4400.31
                             4419.74  4459.69  4489.13  4525.84  4538.01
                             4550.26  4565.83  4609.25  4659.07  5129.09
                             5294.86

 Zero-point correction=                           0.235280 (Hartree/Particle)
 Thermal correction to Energy=                    0.249210
 Thermal correction to Enthalpy=                  0.250154
 Thermal correction to Gibbs Free Energy=         0.195803
 Sum of electronic and zero-point Energies=           -973.011250
 Sum of electronic and thermal Energies=              -972.997320
 Sum of electronic and thermal Enthalpies=            -972.996376
 Sum of electronic and thermal Free Energies=         -973.050726

                     E (Thermal)             CV                S
                      KCal/Mol        Cal/Mol-Kelvin    Cal/Mol-Kelvin
 Total                  156.382             56.393            114.391
 Electronic               0.000              0.000              0.000
 Translational            0.889              2.981             42.042
 Rotational               0.889              2.981             32.141
 Vibrational            154.604             50.432             40.207
 Vibration     1          0.596              1.977              4.744
 Vibration     2          0.602              1.956              3.644
 Vibration     3          0.613              1.918              2.874
 Vibration     4          0.616              1.910              2.763
 Vibration     5          0.630              1.865              2.317
 Vibration     6          0.651              1.798              1.894
 Vibration     7          0.653              1.793              1.869
 Vibration     8          0.666              1.752              1.688
 Vibration     9          0.670              1.740              1.640
 Vibration    10          0.688              1.686              1.453
 Vibration    11          0.703              1.643              1.330
 Vibration    12          0.708              1.630              1.296
 Vibration    13          0.726              1.577              1.170
 Vibration    14          0.755              1.498              1.012
 Vibration    15          0.765              1.473              0.967
 Vibration    16          0.778              1.440              0.912
 Vibration    17          0.789              1.410              0.867
 Vibration    18          0.843              1.279              0.691
 Vibration    19          0.865              1.228              0.633
 Vibration    20          0.879              1.197              0.601
 Vibration    21          0.894              1.165              0.568
 Vibration    22          0.909              1.131              0.536
 Vibration    23          0.921              1.106              0.513

 Optimization completed.
    -- Stationary point found.
 Normal termination of Gaussian 16 at Fri May 19 08:15:56 2023.
