 Gaussian 16, Revision A.03,
 Gaussian 16:  ES64L-G16RevA.03 25-Dec-2016

 -----------------------------
 # opt freq b3lyp/6-31g(2df,p)
 -----------------------------

 -------------------
 Title Card Required
 -------------------
 Symbolic Z-matrix:
 Charge =  0 Multiplicity = 1

 SCF Done:  E(RB3LYP) =  -797.548349288     A.U. after   21 cycles
 SCF Done:  E(RB3LYP) =  -797.616953594     A.U. after   15 cycles
 SCF Done:  E(RB3LYP) =  -797.684507131     A.U. after   16 cycles
 SCF Done:  E(RB3LYP) =  -797.708134245     A.U. after   15 cycles
 SCF Done:  E(RB3LYP) =  -797.724889797     A.U. after   15 cycles
 SCF Done:  E(RB3LYP) =  -797.731326757     A.U. after   14 cycles
 SCF Done:  E(RB3LYP) =  -797.737892915     A.U. after   14 cycles
 SCF Done:  E(RB3LYP) =  -797.742167325     A.U. after   14 cycles
 SCF Done:  E(RB3LYP) =  -797.744031816     A.U. after   14 cycles
 SCF Done:  E(RB3LYP) =  -797.745044556     A.U. after   14 cycles
 SCF Done:  E(RB3LYP) =  -797.746766753     A.U. after   11 cycles
 SCF Done:  E(RB3LYP) =  -797.746803116     A.U. after   12 cycles
 SCF Done:  E(RB3LYP) =  -797.746809934     A.U. after   10 cycles
 SCF Done:  E(RB3LYP) =  -797.746818033     A.U. after   12 cycles
 SCF Done:  E(RB3LYP) =  -797.746820240     A.U. after   12 cycles
 SCF Done:  E(RB3LYP) =  -797.746822347     A.U. after   10 cycles
 SCF Done:  E(RB3LYP) =  -797.746822617     A.U. after    8 cycles
 SCF Done:  E(RB3LYP) =  -797.746822784     A.U. after    8 cycles
 SCF Done:  E(RB3LYP) =  -797.746822829     A.U. after    7 cycles
 Optimization completed.
    -- Stationary point found.
 Normal termination of Gaussian 16 at Fri May 19 15:32:46 2023.

 ----------------------------------------------------------------------
 #N Geom=AllCheck Guess=TCheck SCRF=Check GenChk RB3LYP/6-31G(2df,p) Fr
 eq
 ----------------------------------------------------------------------

 Structure from the checkpoint file:  "CNqOrNdC1CdCCdC2CdCCdCNdNCdC2C1.chk"
 -------------------
 Title Card Required
 -------------------
 Charge =  0 Multiplicity = 1

                         Standard orientation:
 ---------------------------------------------------------------------
 Center     Atomic      Atomic             Coordinates (Angstroms)
 Number     Number       Type             X           Y           Z
 ---------------------------------------------------------------------
      1          6           0        3.977692   -2.144774   -0.724661
      2          7           0        3.733596   -0.800301   -0.198997
      3          8           0        3.800946    0.103404   -1.327464
      4          7           0        2.583441   -0.768411    0.511045
      5          6           0        1.833911    0.269701    0.676534
      6          6           0        2.037442    1.633062    0.214642
      7          6           0        1.056092    2.556283    0.093400
      8          6           0       -0.380549    2.402119    0.142592
      9          6           0       -1.179679    1.325364    0.396563
     10          6           0       -2.587327    1.328094   -0.042562
     11          6           0       -2.861595    0.977190   -1.315642
     12          6           0       -3.862002   -0.117715   -1.349113
     13          6           0       -3.186175   -1.271516   -1.143703
     14          7           0       -3.539213   -1.881888    0.077361
     15          7           0       -2.681420   -1.764753    0.985472
     16          6           0       -1.362404   -1.201821    0.988755
     17          6           0       -0.731547    0.022741    0.928700
     18          6           0        0.646747    0.042181    1.598027
     19          1           0        4.980859   -2.171662   -1.153243
     20          1           0        3.243653   -2.413171   -1.494911
     21          1           0        3.910762   -2.847376    0.106248
     22          1           0        4.570179    0.648294   -1.123912
     23          1           0        3.052336    1.945953    0.010278
     24          1           0        1.373880    3.560250   -0.178435
     25          1           0       -0.917641    3.287557   -0.187315
     26          1           0       -3.339829    1.118089    0.717600
     27          1           0       -2.086689    1.025940   -2.075598
     28          1           0       -4.832466    0.009723   -0.876251
     29          1           0       -2.148555   -1.383750   -1.459650
     30          1           0       -0.745850   -1.965989    1.459973
     31          1           0        0.815978   -0.899827    2.118547
     32          1           0        0.637353    0.840759    2.351010
 ---------------------------------------------------------------------

 SCF Done:  E(RB3LYP) =  -797.746822829     A.U. after    1 cycles

 The electronic state is 1-A.
 Alpha  occ. eigenvalues --  -19.17326 -14.41484 -14.39422 -14.38628 -14.34980
 Alpha  occ. eigenvalues --  -10.22973 -10.22615 -10.22346 -10.22009 -10.21725
 Alpha  occ. eigenvalues --  -10.21150 -10.20893 -10.20885 -10.19937 -10.19136
 Alpha  occ. eigenvalues --  -10.18927 -10.18748 -10.18666  -1.08229  -1.03686
 Alpha  occ. eigenvalues --   -0.95200  -0.86265  -0.85081  -0.82525  -0.79380
 Alpha  occ. eigenvalues --   -0.76774  -0.75029  -0.71959  -0.67335  -0.65977
 Alpha  occ. eigenvalues --   -0.62537  -0.61107  -0.58293  -0.57216  -0.55836
 Alpha  occ. eigenvalues --   -0.52416  -0.51852  -0.50253  -0.48377  -0.48156
 Alpha  occ. eigenvalues --   -0.46335  -0.45391  -0.44545  -0.43914  -0.41958
 Alpha  occ. eigenvalues --   -0.41713  -0.41085  -0.40429  -0.39746  -0.38836
 Alpha  occ. eigenvalues --   -0.38457  -0.37428  -0.35973  -0.35004  -0.33442
 Alpha  occ. eigenvalues --   -0.32407  -0.31021  -0.29673  -0.28003  -0.26356
 Alpha  occ. eigenvalues --   -0.25287  -0.23243  -0.21965  -0.18718
 Alpha virt. eigenvalues --   -0.07641  -0.05817  -0.04243  -0.01009   0.01116
 Alpha virt. eigenvalues --    0.05138   0.06162   0.09996   0.10370   0.11061
 Alpha virt. eigenvalues --    0.11137   0.12323   0.13670   0.14040   0.14650

 Mulliken charges:
               1
     1  C   -0.260238
     2  N    0.015430
     3  O   -0.403730
     4  N   -0.227463
     5  C    0.293962
     6  C   -0.156259
     7  C   -0.083384
     8  C   -0.179866
     9  C    0.152360
    10  C   -0.179333
    11  C   -0.112439
    12  C   -0.128779
    13  C   -0.002163
    14  N   -0.126288
    15  N   -0.134326
    16  C   -0.112567
    17  C    0.201610
    18  C   -0.371609
    19  H    0.121654
    20  H    0.123556
    21  H    0.141744
    22  H    0.302463
    23  H    0.076282
    24  H    0.091272
    25  H    0.091720
    26  H    0.113516
    27  H    0.125726
    28  H    0.140447
    29  H    0.126239
    30  H    0.118672
    31  H    0.120952
    32  H    0.120841
 Sum of Mulliken charges =  -0.00000

 Dipole moment (field-independent basis, Debye):
    X=              2.2496    Y=              1.7071    Z=             -1.5213  Tot=              3.2077
 Quadrupole moment (field-independent basis, Debye-Ang):
   XX=            -97.2682   YY=           -102.4786   ZZ=           -105.8672
   XY=             -5.3260   XZ=              1.5760   YZ=              2.0977

  Exact polarizability: 285.837   8.649 191.008   4.660  -7.331 126.823
 Approx polarizability: 458.501  29.652 380.849  13.752 -26.129 237.350

                      1                      2                      3
                      A                      A                      A
 Frequencies --     30.4298                38.5164                45.3517
 Red. masses --      4.6150                 5.8134                 4.0455
 Frc consts  --      0.0025                 0.0051                 0.0049
 IR Inten    --      1.0913                 1.6730                 0.4777

                      4                      5                      6
                      A                      A                      A
 Frequencies --    106.5080               119.1586               164.7430
 Red. masses --      3.8675                 3.3452                 4.2897
 Frc consts  --      0.0258                 0.0280                 0.0686
 IR Inten    --      2.6083                 0.2859                 7.8913

                      7                      8                      9
                      A                      A                      A
 Frequencies --    170.4108               216.8668               236.3973
 Red. masses --      4.0884                 2.0771                 2.7629
 Frc consts  --      0.0700                 0.0576                 0.0910
 IR Inten    --      9.6387                 4.9667                 2.0591

                     10                     11                     12
                      A                      A                      A
 Frequencies --    243.7710               262.4728               295.9961
 Red. masses --      3.7432                 2.6280                 4.1015
 Frc consts  --      0.1311                 0.1067                 0.2117
 IR Inten    --      4.0386                 3.0462                 3.8815

                     13                     14                     15
                      A                      A                      A
 Frequencies --    306.4917               327.6162               342.3036
 Red. masses --      4.4886                 3.5038                 2.0030
 Frc consts  --      0.2484                 0.2216                 0.1383
 IR Inten    --     23.5411                 2.3441                50.8269

                     16                     17                     18
                      A                      A                      A
 Frequencies --    347.9959               367.6574               376.0044
 Red. masses --      1.4372                 2.9600                 4.2058
 Frc consts  --      0.1025                 0.2357                 0.3503
 IR Inten    --     58.5878                 0.5144                31.1067

                     19                     20                     21
                      A                      A                      A
 Frequencies --    395.8483               433.5004               447.5559
 Red. masses --      3.3106                 3.5351                 3.4445
 Frc consts  --      0.3056                 0.3914                 0.4065
 IR Inten    --     12.0235                15.7416                21.4796

                     22                     23                     24
                      A                      A                      A
 Frequencies --    477.9611               509.3148               544.0360
 Red. masses --      3.3846                 4.9795                 4.5686
 Frc consts  --      0.4556                 0.7610                 0.7967
 IR Inten    --     16.5546                13.9589                30.6523

                     25                     26                     27
                      A                      A                      A
 Frequencies --    553.0199               613.2933               657.6190
 Red. masses --      4.6147                 4.4101                 3.5498
 Frc consts  --      0.8315                 0.9773                 0.9045
 IR Inten    --     19.1073                30.0341                 9.0981

                     28                     29                     30
                      A                      A                      A
 Frequencies --    668.7492               714.4144               738.5397
 Red. masses --      4.0190                 2.8073                 3.0147
 Frc consts  --      1.0590                 0.8442                 0.9688
 IR Inten    --     15.1484                 5.4367                17.0016

                     31                     32                     33
                      A                      A                      A
 Frequencies --    757.5888               769.4197               790.2835
 Red. masses --      5.8850                 3.4257                 2.6069
 Frc consts  --      1.9900                 1.1949                 0.9593
 IR Inten    --     93.2135                18.2363                 0.4721

                     34                     35                     36
                      A                      A                      A
 Frequencies --    798.8971               804.9303               852.3340
 Red. masses --      4.3181                 2.2772                 2.3478
 Frc consts  --      1.6238                 0.8693                 1.0049
 IR Inten    --     14.6431                54.1642                79.2845

                     37                     38                     39
                      A                      A                      A
 Frequencies --    874.4890               897.5726               902.0646
 Red. masses --      2.1529                 4.6118                 1.6558
 Frc consts  --      0.9700                 2.1891                 0.7938
 IR Inten    --     54.1863                28.7334                 5.6579

                     40                     41                     42
                      A                      A                      A
 Frequencies --    915.2443               971.5985               988.5654
 Red. masses --      1.6805                 3.3373                 1.3135
 Frc consts  --      0.8294                 1.8562                 0.7563
 IR Inten    --     13.9230                53.0513                 0.1184

                     43                     44                     45
                      A                      A                      A
 Frequencies --    999.8775              1003.4069              1015.3566
 Red. masses --      1.9247                 3.1499                 1.7910
 Frc consts  --      1.1337                 1.8686                 1.0879
 IR Inten    --     26.8813                41.6221                 8.9726

                     46                     47                     48
                      A                      A                      A
 Frequencies --   1038.0653              1057.3238              1090.7088
 Red. masses --      2.2102                 1.6181                 3.3147
 Frc consts  --      1.4032                 1.0658                 2.3233
 IR Inten    --     46.5418                17.4637                 1.8979

                     49                     50                     51
                      A                      A                      A
 Frequencies --   1098.8513              1127.0117              1159.7315
 Red. masses --      3.1925                 1.8143                 1.5798
 Frc consts  --      2.2712                 1.3577                 1.2519
 IR Inten    --     14.3090                61.6955                11.1950

                     52                     53                     54
                      A                      A                      A
 Frequencies --   1202.1566              1208.2089              1215.1776
 Red. masses --      1.5300                 1.4855                 2.0236
 Frc consts  --      1.3028                 1.2777                 1.7606
 IR Inten    --     16.3643                 3.3565                 3.6146

                     55                     56                     57
                      A                      A                      A
 Frequencies --   1240.0805              1256.8001              1290.1393
 Red. masses --      2.5430                 1.5346                 1.4383
 Frc consts  --      2.3041                 1.4282                 1.4105
 IR Inten    --     22.7704                22.2289                 3.0215

                     58                     59                     60
                      A                      A                      A
 Frequencies --   1298.0012              1321.2018              1331.7059
 Red. masses --      1.5802                 1.3701                 1.4136
 Frc consts  --      1.5686                 1.4091                 1.4771
 IR Inten    --      1.5496                22.2985                21.5055

                     61                     62                     63
                      A                      A                      A
 Frequencies --   1334.4121              1334.6976              1375.6890
 Red. masses --      1.2572                 1.3784                 1.3091
 Frc consts  --      1.3190                 1.4467                 1.4597
 IR Inten    --     43.9484                10.2417                 4.5727

                     64                     65                     66
                      A                      A                      A
 Frequencies --   1422.1910              1434.8439              1445.0796
 Red. masses --      1.5205                 1.1919                 1.5823
 Frc consts  --      1.8120                 1.4457                 1.9468
 IR Inten    --     14.2245                 9.7731                 2.1569

                     67                     68                     69
                      A                      A                      A
 Frequencies --   1474.7395              1478.9655              1479.8595
 Red. masses --      1.1629                 1.0495                 6.5387
 Frc consts  --      1.4901                 1.3526                 8.4369
 IR Inten    --     18.8106                24.8731                 8.9767

                     70                     71                     72
                      A                      A                      A
 Frequencies --   1496.5166              1525.0933              1576.4894
 Red. masses --      1.0526                 3.1599                 5.4851
 Frc consts  --      1.3889                 4.3303                 8.0319
 IR Inten    --      2.3087                19.9150                14.8583

                     73                     74                     75
                      A                      A                      A
 Frequencies --   1589.5323              1597.0561              1638.5406
 Red. masses --      7.9262                 5.5347                 7.0517
 Frc consts  --     11.7992                 8.3173                11.1548
 IR Inten    --     28.8914                42.0224                 4.1076

                     76                     77                     78
                      A                      A                      A
 Frequencies --   1657.4324              3023.7781              3024.6038
 Red. masses --      6.1316                 1.0666                 1.0453
 Frc consts  --      9.9242                 5.7459                 5.6343
 IR Inten    --     29.2075                34.8269                41.5625

                     79                     80                     81
                      A                      A                      A
 Frequencies --   3113.1228              3116.1435              3116.6808
 Red. masses --      1.0880                 1.0861                 1.0913
 Frc consts  --      6.2125                 6.2137                 6.2454
 IR Inten    --      7.9598                14.8724                23.3401

                     82                     83                     84
                      A                      A                      A
 Frequencies --   3121.7240              3135.3110              3141.7996
 Red. masses --      1.0907                 1.0865                 1.0847
 Frc consts  --      6.2624                 6.2928                 6.3085
 IR Inten    --      0.9403                 8.1387                20.6631

                     85                     86                     87
                      A                      A                      A
 Frequencies --   3158.8906              3161.4460              3166.2445
 Red. masses --      1.1041                 1.0886                 1.0897
 Frc consts  --      6.4914                 6.4105                 6.4366
 IR Inten    --     11.8931                20.5405                 6.1814

                     88                     89                     90
                      A                      A                      A
 Frequencies --   3171.4723              3214.9393              3793.8995
 Red. masses --      1.0878                 1.0894                 1.0682
 Frc consts  --      6.4462                 6.6342                 9.0590
 IR Inten    --      4.9083                11.8024                70.0449

 - Thermochemistry -
 -------------------
 Temperature   298.150 Kelvin.  Pressure   1.00000 Atm.
 Atom     1 has atomic number  6 and mass  12.00000

 Molecular mass:   242.11676 amu.
 Principal axes and moments of inertia in atomic units:
                           1         2         3
     Eigenvalues --  2462.880786953.464528011.81738
           X            0.99986  -0.01630  -0.00263
           Y            0.01631   0.99985   0.00598
           Z            0.00253  -0.00602   0.99998
 This molecule is an asymmetric top.
 Rotational symmetry number  1.
 Warning -- assumption of classical behavior for rotation
           may cause significant error
 Rotational temperatures (Kelvin)      0.03517     0.01246     0.01081
 Rotational constants (GHZ):           0.73278     0.25955     0.22526
 Zero-point vibrational energy     660042.8 (Joules/Mol)
                                  157.75400 (Kcal/Mol)
 Warning -- explicit consideration of  26 degrees of freedom as
           vibrations may cause significant error
 Vibrational temperatures:     43.78    55.42    65.25   153.24   171.44
          (Kelvin)            237.03   245.18   312.02   340.12   350.73
                              377.64   425.87   440.97   471.37   492.50
                              500.69   528.98   540.99   569.54   623.71
                              643.93   687.68   732.79   782.75   795.67
                              882.39   946.17   962.18  1027.88  1062.59
                             1090.00  1107.02  1137.04  1149.43  1158.12
                             1226.32  1258.19  1291.41  1297.87  1316.83
                             1397.91  1422.33  1438.60  1443.68  1460.87
                             1493.54  1521.25  1569.29  1581.00  1621.52
                             1668.60  1729.64  1738.34  1748.37  1784.20
                             1808.25  1856.22  1867.53  1900.91  1916.03
                             1919.92  1920.33  1979.31  2046.22  2064.42
                             2079.15  2121.82  2127.90  2129.19  2153.15
                             2194.27  2268.22  2286.98  2297.81  2357.49
                             2384.68  4350.54  4351.73  4479.09  4483.44
                             4484.21  4491.46  4511.01  4520.35  4544.94
                             4548.62  4555.52  4563.04  4625.58  5458.58

 Zero-point correction=                           0.251397 (Hartree/Particle)
 Thermal correction to Energy=                    0.267656
 Thermal correction to Enthalpy=                  0.268600
 Thermal correction to Gibbs Free Energy=         0.207322
 Sum of electronic and zero-point Energies=           -797.495426
 Sum of electronic and thermal Energies=              -797.479167
 Sum of electronic and thermal Enthalpies=            -797.478223
 Sum of electronic and thermal Free Energies=         -797.539501

                     E (Thermal)             CV                S
                      KCal/Mol        Cal/Mol-Kelvin    Cal/Mol-Kelvin
 Total                  167.956             63.702            128.970
 Electronic               0.000              0.000              0.000
 Translational            0.889              2.981             42.354
 Rotational               0.889              2.981             33.284
 Vibrational            166.179             57.741             53.333
 Vibration     1          0.594              1.984              5.801
 Vibration     2          0.594              1.981              5.334
 Vibration     3          0.595              1.979              5.010
 Vibration     4          0.605              1.944              3.332
 Vibration     5          0.609              1.933              3.114
 Vibration     6          0.623              1.886              2.495
 Vibration     7          0.626              1.879              2.431
 Vibration     8          0.646              1.815              1.985
 Vibration     9          0.655              1.785              1.830
 Vibration    10          0.659              1.773              1.775
 Vibration    11          0.670              1.742              1.645
 Vibration    12          0.690              1.681              1.439
 Vibration    13          0.697              1.661              1.381
 Vibration    14          0.711              1.620              1.272
 Vibration    15          0.721              1.591              1.201
 Vibration    16          0.726              1.579              1.175
 Vibration    17          0.740              1.539              1.090
 Vibration    18          0.747              1.521              1.055
 Vibration    19          0.763              1.479              0.978
 Vibration    20          0.794              1.397              0.847
 Vibration    21          0.807              1.366              0.803
 Vibration    22          0.834              1.299              0.716
 Vibration    23          0.864              1.229              0.635
 Vibration    24          0.899              1.153              0.557
 Vibration    25          0.908              1.133              0.538
 Vibration    26          0.973              1.004              0.427

                           ! Non-Optimized Parameters !
 Normal termination of Gaussian 16 at Fri May 19 19:29:16 2023.
