 Gaussian 16, Revision A.03,
 Gaussian 16:  ES64L-G16RevA.03 25-Dec-2016

 -----------------------------
 # opt freq b3lyp/6-31g(2df,p)
 -----------------------------

 -------------------
 Title Card Required
 -------------------
 Symbolic Z-matrix:
 Charge =  0 Multiplicity = 1

 SCF Done:  E(RB3LYP) =  -1011.28639080     A.U. after   18 cycles
 SCF Done:  E(RB3LYP) =  -1011.32792317     A.U. after   13 cycles
 SCF Done:  E(RB3LYP) =  -1011.35504183     A.U. after   14 cycles
 SCF Done:  E(RB3LYP) =  -1011.36333200     A.U. after   13 cycles
 SCF Done:  E(RB3LYP) =  -1011.37131670     A.U. after   13 cycles
 SCF Done:  E(RB3LYP) =  -1011.38093686     A.U. after   14 cycles
 SCF Done:  E(RB3LYP) =  -1011.38578561     A.U. after   12 cycles
 SCF Done:  E(RB3LYP) =  -1011.38985251     A.U. after   13 cycles
 SCF Done:  E(RB3LYP) =  -1011.39063978     A.U. after   13 cycles
 SCF Done:  E(RB3LYP) =  -1011.39098424     A.U. after   13 cycles
 SCF Done:  E(RB3LYP) =  -1011.39112916     A.U. after   12 cycles
 SCF Done:  E(RB3LYP) =  -1011.39119214     A.U. after   11 cycles
 SCF Done:  E(RB3LYP) =  -1011.39121828     A.U. after   10 cycles
 SCF Done:  E(RB3LYP) =  -1011.39122977     A.U. after   10 cycles
 SCF Done:  E(RB3LYP) =  -1011.39123418     A.U. after    8 cycles
 SCF Done:  E(RB3LYP) =  -1011.39123562     A.U. after    8 cycles
 SCF Done:  E(RB3LYP) =  -1011.39123609     A.U. after    7 cycles
 Optimization completed.
    -- Stationary point found.
 Normal termination of Gaussian 16 at Wed May 17 06:32:20 2023.

 ----------------------------------------------------------------------
 #N Geom=AllCheck Guess=TCheck SCRF=Check GenChk RB3LYP/6-31G(2df,p) Fr
 eq
 ----------------------------------------------------------------------

 Structure from the checkpoint file:  "CNSC1CdCC2dCCdCC2dCCdCCdN1.chk"
 -------------------
 Title Card Required
 -------------------
 Charge =  0 Multiplicity = 1

                         Standard orientation:
 ---------------------------------------------------------------------
 Center     Atomic      Atomic             Coordinates (Angstroms)
 Number     Number       Type             X           Y           Z
 ---------------------------------------------------------------------
      1          6           0        4.933464   -1.507559    0.464101
      2          7           0        4.143082   -0.373399   -0.001221
      3         16           0        2.696719   -0.706456   -0.826945
      4          6           0        1.444593    0.117143    0.289343
      5          6           0        0.087535   -0.326027   -0.176132
      6          6           0       -0.788745   -1.034172    0.552224
      7          6           0       -2.226127   -1.059159    0.262188
      8          6           0       -3.084347   -2.112831    0.199114
      9          6           0       -4.415342   -1.644792   -0.188552
     10          6           0       -4.381241   -0.301764   -0.361778
     11          6           0       -3.029202    0.162665   -0.046197
     12          6           0       -2.639745    1.461343    0.018438
     13          6           0       -1.313410    1.860053    0.480376
     14          6           0       -0.425316    2.621407   -0.175209
     15          6           0        1.022896    2.550381    0.103014
     16          7           0        1.773431    1.536843    0.319674
     17          1           0        5.786406   -1.126015    1.036535
     18          1           0        5.319098   -2.154290   -0.338277
     19          1           0        4.323398   -2.123904    1.130039
     20          1           0        4.692207    0.325879   -0.481512
     21          1           0        1.655756   -0.271860    1.290353
     22          1           0       -0.240887    0.085983   -1.124924
     23          1           0       -0.454234   -1.497100    1.481919
     24          1           0       -2.822069   -3.150690    0.360968
     25          1           0       -5.277175   -2.287813   -0.310489
     26          1           0       -5.203740    0.351261   -0.619090
     27          1           0       -3.331670    2.226721   -0.330386
     28          1           0       -0.957091    1.346847    1.363980
     29          1           0       -0.719956    3.206450   -1.046247
     30          1           0        1.556797    3.507586    0.063492
 ---------------------------------------------------------------------

 SCF Done:  E(RB3LYP) =  -1011.39123609     A.U. after    1 cycles

 The electronic state is 1-A.
 Alpha  occ. eigenvalues --  -88.87902 -14.33435 -14.32702 -10.23849 -10.23131
 Alpha  occ. eigenvalues --  -10.21684 -10.20477 -10.20442 -10.20098 -10.19780
 Alpha  occ. eigenvalues --  -10.19014 -10.18667 -10.18622 -10.18345 -10.18252
 Alpha  occ. eigenvalues --  -10.17801  -7.93830  -5.90397  -5.90006  -5.89306
 Alpha  occ. eigenvalues --   -0.92130  -0.89907  -0.86937  -0.81368  -0.79884
 Alpha  occ. eigenvalues --   -0.75532  -0.73556  -0.70034  -0.67969  -0.64565
 Alpha  occ. eigenvalues --   -0.61635  -0.60487  -0.57523  -0.54283  -0.53523
 Alpha  occ. eigenvalues --   -0.51652  -0.50803  -0.48119  -0.46928  -0.46688
 Alpha  occ. eigenvalues --   -0.45272  -0.44201  -0.42079  -0.41205  -0.40291
 Alpha  occ. eigenvalues --   -0.39470  -0.39116  -0.37810  -0.37426  -0.36681
 Alpha  occ. eigenvalues --   -0.36336  -0.35463  -0.34175  -0.32826  -0.28874
 Alpha  occ. eigenvalues --   -0.25537  -0.24163  -0.23570  -0.22605  -0.21840
 Alpha  occ. eigenvalues --   -0.19994
 Alpha virt. eigenvalues --   -0.08039  -0.03800   0.00093   0.02787   0.05401
 Alpha virt. eigenvalues --    0.07593   0.08352   0.09567   0.11166   0.11963
 Alpha virt. eigenvalues --    0.12495   0.12786   0.13109   0.14283   0.15751

 Mulliken charges:
               1
     1  C   -0.299119
     2  N   -0.268188
     3  S   -0.107330
     4  C    0.002555
     5  C   -0.077011
     6  C   -0.238797
     7  C    0.192229
     8  C   -0.215315
     9  C   -0.111069
    10  C   -0.187102
    11  C    0.241681
    12  C   -0.208368
    13  C   -0.084525
    14  C   -0.136322
    15  C    0.001348
    16  N   -0.188972
    17  H    0.120067
    18  H    0.111497
    19  H    0.133648
    20  H    0.246529
    21  H    0.117092
    22  H    0.110058
    23  H    0.095991
    24  H    0.102200
    25  H    0.101410
    26  H    0.099603
    27  H    0.112825
    28  H    0.127873
    29  H    0.102559
    30  H    0.102956
 Sum of Mulliken charges =  -0.00000

 Dipole moment (field-independent basis, Debye):
    X=             -0.6242    Y=              0.9704    Z=              0.4421  Tot=              1.2356
 Quadrupole moment (field-independent basis, Debye-Ang):
   XX=            -89.6130   YY=            -94.5915   ZZ=           -101.8712
   XY=             -2.6849   XZ=              1.8801   YZ=             -4.8806

  Exact polarizability: 271.095  22.595 197.149   5.393  -9.504  99.965
 Approx polarizability: 385.551  64.194 367.930   1.754 -21.979 177.025

                      1                      2                      3
                      A                      A                      A
 Frequencies --     40.0472                42.0925                78.2023
 Red. masses --      4.2522                 4.1020                 4.5348
 Frc consts  --      0.0040                 0.0043                 0.0163
 IR Inten    --      1.1089                 1.0208                 0.3602

                      4                      5                      6
                      A                      A                      A
 Frequencies --     81.2830               119.3794               138.9327
 Red. masses --      2.8696                 4.1065                 2.3771
 Frc consts  --      0.0112                 0.0345                 0.0270
 IR Inten    --      1.1920                 1.8825                 0.8622

                      7                      8                      9
                      A                      A                      A
 Frequencies --    152.1763               176.4784               208.9525
 Red. masses --      5.5858                 1.7579                 3.5191
 Frc consts  --      0.0762                 0.0323                 0.0905
 IR Inten    --      0.3598                 0.1004                 2.1592

                     10                     11                     12
                      A                      A                      A
 Frequencies --    222.5341               277.3285               293.6895
 Red. masses --      3.1987                 2.6060                 4.0207
 Frc consts  --      0.0933                 0.1181                 0.2043
 IR Inten    --      0.5783                 0.4295                 1.6519

                     13                     14                     15
                      A                      A                      A
 Frequencies --    302.9431               331.8572               337.3553
 Red. masses --      3.7149                 2.9000                 3.3466
 Frc consts  --      0.2009                 0.1882                 0.2244
 IR Inten    --      5.3593                 8.9860                 2.4213

                     16                     17                     18
                      A                      A                      A
 Frequencies --    375.5194               400.1825               439.4614
 Red. masses --      2.9594                 4.4712                 6.2430
 Frc consts  --      0.2459                 0.4219                 0.7104
 IR Inten    --      2.2016                 4.4394                 5.0331

                     19                     20                     21
                      A                      A                      A
 Frequencies --    473.6770               505.1512               539.2920
 Red. masses --      3.4148                 4.1940                 1.9795
 Frc consts  --      0.4514                 0.6306                 0.3392
 IR Inten    --      2.0713                 8.7803                47.5728

                     22                     23                     24
                      A                      A                      A
 Frequencies --    560.2209               580.8124               672.1503
 Red. masses --      3.1099                 4.1390                 3.3414
 Frc consts  --      0.5751                 0.8227                 0.8894
 IR Inten    --      2.1534                11.0901                 4.0938

                     25                     26                     27
                      A                      A                      A
 Frequencies --    703.4462               717.9853               746.1103
 Red. masses --      3.0720                 2.5266                 3.6655
 Frc consts  --      0.8956                 0.7674                 1.2022
 IR Inten    --      5.0518                14.4256                 8.6679

                     28                     29                     30
                      A                      A                      A
 Frequencies --    771.8418               784.7850               806.6331
 Red. masses --      2.4325                 3.0109                 2.1219
 Frc consts  --      0.8538                 1.0926                 0.8134
 IR Inten    --      9.8307                23.2783                30.5714

                     31                     32                     33
                      A                      A                      A
 Frequencies --    811.5578               850.1477               864.9145
 Red. masses --      4.2977                 2.4939                 1.7174
 Frc consts  --      1.6677                 1.0620                 0.7569
 IR Inten    --     14.3179                29.0942                 6.4359

                     34                     35                     36
                      A                      A                      A
 Frequencies --    886.5825               896.0385               911.3391
 Red. masses --      2.1903                 1.7196                 1.6934
 Frc consts  --      1.0143                 0.8135                 0.8286
 IR Inten    --     16.6043                19.2774                 6.5040

                     37                     38                     39
                      A                      A                      A
 Frequencies --    924.7220               928.1320              1003.2108
 Red. masses --      2.5041                 1.4203                 1.3352
 Frc consts  --      1.2616                 0.7209                 0.7917
 IR Inten    --      5.6375                 1.0133                26.7173

                     40                     41                     42
                      A                      A                      A
 Frequencies --   1007.9286              1032.5082              1040.9967
 Red. masses --      1.5250                 1.7293                 1.3380
 Frc consts  --      0.9128                 1.0862                 0.8543
 IR Inten    --     13.4827                 8.5537                57.3908

                     43                     44                     45
                      A                      A                      A
 Frequencies --   1077.7233              1096.5650              1103.3226
 Red. masses --      3.4399                 1.8682                 2.2786
 Frc consts  --      2.3540                 1.3236                 1.6343
 IR Inten    --     23.2103                23.1204                32.8747

                     46                     47                     48
                      A                      A                      A
 Frequencies --   1122.8258              1137.3672              1146.2582
 Red. masses --      2.3912                 1.2924                 1.7610
 Frc consts  --      1.7762                 0.9850                 1.3632
 IR Inten    --      6.6953                 6.3009                38.7397

                     49                     50                     51
                      A                      A                      A
 Frequencies --   1150.3145              1157.7984              1220.6899
 Red. masses --      1.7490                 1.5042                 1.8865
 Frc consts  --      1.3636                 1.1880                 1.6562
 IR Inten    --      8.2974                 4.2925                 7.4107

                     52                     53                     54
                      A                      A                      A
 Frequencies --   1247.5830              1270.7376              1291.7727
 Red. masses --      1.3905                 1.2979                 1.7843
 Frc consts  --      1.2752                 1.2348                 1.7543
 IR Inten    --      2.2475                 8.1887                 3.6738

                     55                     56                     57
                      A                      A                      A
 Frequencies --   1327.5700              1338.3393              1344.1879
 Red. masses --      1.3120                 1.4023                 1.3560
 Frc consts  --      1.3624                 1.4798                 1.4435
 IR Inten    --      1.8946                 0.2006                12.1503

                     58                     59                     60
                      A                      A                      A
 Frequencies --   1346.5829              1383.8513              1421.9656
 Red. masses --      1.6601                 1.8541                 1.1904
 Frc consts  --      1.7736                 2.0921                 1.4181
 IR Inten    --      6.5273                11.9408                 0.6955

                     61                     62                     63
                      A                      A                      A
 Frequencies --   1422.4920              1449.5918              1487.3174
 Red. masses --      1.2078                 1.1302                 1.0690
 Frc consts  --      1.4399                 1.3993                 1.3933
 IR Inten    --     14.5594                 8.1623                19.1619

                     64                     65                     66
                      A                      A                      A
 Frequencies --   1514.4438              1528.6062              1617.3683
 Red. masses --      1.0386                 7.0612                 5.4199
 Frc consts  --      1.4035                 9.7212                 8.3534
 IR Inten    --      4.9200                28.1557                 3.2616

                     67                     68                     69
                      A                      A                      A
 Frequencies --   1637.3205              1658.4131              1677.9378
 Red. masses --      8.2504                 9.3768                 6.3916
 Frc consts  --     13.0315                15.1947                10.6026
 IR Inten    --     44.4539                21.1103                 5.4400

                     70                     71                     72
                      A                      A                      A
 Frequencies --   1687.6577              2985.9570              3041.7517
 Red. masses --      6.3538                 1.0487                 1.0845
 Frc consts  --     10.6623                 5.5091                 5.9117
 IR Inten    --      7.6097               124.0317                74.6437

                     73                     74                     75
                      A                      A                      A
 Frequencies --   3057.4115              3062.7454              3107.5522
 Red. masses --      1.0842                 1.0864                 1.0869
 Frc consts  --      5.9714                 6.0042                 6.1843
 IR Inten    --      4.5353                34.4446                16.2977

                     76                     77                     78
                      A                      A                      A
 Frequencies --   3110.2880              3129.4308              3138.2063
 Red. masses --      1.1009                 1.0882                 1.0876
 Frc consts  --      6.2748                 6.2790                 6.3110
 IR Inten    --     17.9951                12.7090                14.6212

                     79                     80                     81
                      A                      A                      A
 Frequencies --   3175.0668              3203.2150              3207.8354
 Red. masses --      1.0873                 1.0859                 1.0883
 Frc consts  --      6.4584                 6.5647                 6.5983
 IR Inten    --      7.6253                 2.1167                 5.8341

                     82                     83                     84
                      A                      A                      A
 Frequencies --   3218.7499              3237.0868              3576.0389
 Red. masses --      1.0919                 1.1045                 1.0756
 Frc consts  --      6.6652                 6.8192                 8.1042
 IR Inten    --      9.2679                16.4590                11.1460

 - Thermochemistry -
 -------------------
 Temperature   298.150 Kelvin.  Pressure   1.00000 Atm.
 Atom     1 has atomic number  6 and mass  12.00000

 Molecular mass:   230.08777 amu.
 Principal axes and moments of inertia in atomic units:
                           1         2         3
     Eigenvalues --  1885.194736936.283598472.78551
           X            0.99994  -0.00819   0.00713
           Y            0.00832   0.99978  -0.01942
           Z           -0.00697   0.01948   0.99979
 This molecule is an asymmetric top.
 Rotational symmetry number  1.
 Warning -- assumption of classical behavior for rotation
           may cause significant error
 Rotational temperatures (Kelvin)      0.04594     0.01249     0.01022
 Rotational constants (GHZ):           0.95732     0.26019     0.21300
 Zero-point vibrational energy     628975.8 (Joules/Mol)
                                  150.32882 (Kcal/Mol)
 Warning -- explicit consideration of  23 degrees of freedom as
           vibrations may cause significant error
 Vibrational temperatures:     57.62    60.56   112.52   116.95   171.76
          (Kelvin)            199.89   218.95   253.91   300.64   320.18
                              399.01   422.55   435.87   477.47   485.38
                              540.29   575.77   632.29   681.52   726.80
                              775.92   806.03   835.66   967.07  1012.10
                             1033.02  1073.49  1110.51  1129.13  1160.57
                             1167.65  1223.17  1244.42  1275.59  1289.20
                             1311.21  1330.47  1335.37  1443.40  1450.18
                             1485.55  1497.76  1550.60  1577.71  1587.44
                             1615.50  1636.42  1649.21  1655.05  1665.81
                             1756.30  1794.99  1828.31  1858.57  1910.08
                             1925.57  1933.99  1937.43  1991.05  2045.89
                             2046.65  2085.64  2139.92  2178.95  2199.32
                             2327.03  2355.74  2386.09  2414.18  2428.16
                             4296.13  4376.40  4398.93  4406.61  4471.07
                             4475.01  4502.55  4515.18  4568.21  4608.71
                             4615.36  4631.06  4657.45  5145.12

 Zero-point correction=                           0.239564 (Hartree/Particle)
 Thermal correction to Energy=                    0.254918
 Thermal correction to Enthalpy=                  0.255862
 Thermal correction to Gibbs Free Energy=         0.196337
 Sum of electronic and zero-point Energies=          -1011.151672
 Sum of electronic and thermal Energies=             -1011.136318
 Sum of electronic and thermal Enthalpies=           -1011.135374
 Sum of electronic and thermal Free Energies=        -1011.194899

                     E (Thermal)             CV                S
                      KCal/Mol        Cal/Mol-Kelvin    Cal/Mol-Kelvin
 Total                  159.963             58.652            125.281
 Electronic               0.000              0.000              0.000
 Translational            0.889              2.981             42.202
 Rotational               0.889              2.981             33.071
 Vibrational            158.186             52.691             50.008
 Vibration     1          0.594              1.981              5.257
 Vibration     2          0.595              1.980              5.158
 Vibration     3          0.599              1.964              3.935
 Vibration     4          0.600              1.962              3.860
 Vibration     5          0.609              1.933              3.110
 Vibration     6          0.615              1.914              2.819
 Vibration     7          0.619              1.900              2.645
 Vibration     8          0.628              1.871              2.365
 Vibration     9          0.642              1.827              2.053
 Vibration    10          0.648              1.807              1.938
 Vibration    11          0.678              1.715              1.550
 Vibration    12          0.688              1.685              1.453
 Vibration    13          0.694              1.668              1.401
 Vibration    14          0.714              1.612              1.251
 Vibration    15          0.718              1.601              1.225
 Vibration    16          0.746              1.522              1.057
 Vibration    17          0.766              1.470              0.962
 Vibration    18          0.799              1.384              0.828
 Vibration    19          0.830              1.308              0.727
 Vibration    20          0.860              1.239              0.645
 Vibration    21          0.894              1.163              0.567
 Vibration    22          0.916              1.117              0.523
 Vibration    23          0.938              1.073              0.484

                           ! Non-Optimized Parameters !
 Normal termination of Gaussian 16 at Wed May 17 09:08:36 2023.
