 Gaussian 16, Revision A.03,
 Gaussian 16:  ES64L-G16RevA.03 25-Dec-2016

 -----------------------------
 # opt freq b3lyp/6-31g(2df,p)
 -----------------------------

 -------------------
 Title Card Required
 -------------------
 Symbolic Z-matrix:
 Charge =  0 Multiplicity = 1

 SCF Done:  E(RB3LYP) =  -876.011368652     A.U. after   29 cycles
 SCF Done:  E(RB3LYP) =  -876.127533371     A.U. after   23 cycles
 SCF Done:  E(RB3LYP) =  -876.283809818     A.U. after   25 cycles
 SCF Done:  E(RB3LYP) =  -876.381429597     A.U. after   30 cycles
 SCF Done:  E(RB3LYP) =  -876.527512297     A.U. after   26 cycles
 SCF Done:  E(RB3LYP) =  -876.645777045     A.U. after   25 cycles
 SCF Done:  E(RB3LYP) =  -876.758731331     A.U. after   43 cycles
 SCF Done:  E(RB3LYP) =  -876.818117063     A.U. after   23 cycles
 SCF Done:  E(RB3LYP) =  -876.919438767     A.U. after   19 cycles
 SCF Done:  E(RB3LYP) =  -876.949981428     A.U. after   19 cycles
 SCF Done:  E(RB3LYP) =  -877.087614701     A.U. after   13 cycles
 SCF Done:  E(RB3LYP) =  -877.087731306     A.U. after   12 cycles
 SCF Done:  E(RB3LYP) =  -877.087838581     A.U. after   13 cycles
 SCF Done:  E(RB3LYP) =  -877.087872460     A.U. after   11 cycles
 SCF Done:  E(RB3LYP) =  -877.087878354     A.U. after   10 cycles
 SCF Done:  E(RB3LYP) =  -877.087881339     A.U. after   10 cycles
 SCF Done:  E(RB3LYP) =  -877.087881795     A.U. after    8 cycles
 SCF Done:  E(RB3LYP) =  -877.087881939     A.U. after    7 cycles
 SCF Done:  E(RB3LYP) =  -877.087881975     A.U. after    7 cycles
 Optimization completed.
    -- Stationary point found.
 Normal termination of Gaussian 16 at Sat May 20 16:59:57 2023.

 ----------------------------------------------------------------------
 #N Geom=AllCheck Guess=TCheck SCRF=Check GenChk RB3LYP/6-31G(2df,p) Fr
 eq
 ----------------------------------------------------------------------

 Structure from the checkpoint file:  "COC1dCCdCCdCqONCCdOrC2COCN12.chk"
 -------------------
 Title Card Required
 -------------------
 Charge =  0 Multiplicity = 1

                         Standard orientation:
 ---------------------------------------------------------------------
 Center     Atomic      Atomic             Coordinates (Angstroms)
 Number     Number       Type             X           Y           Z
 ---------------------------------------------------------------------
      1          6           0       -6.081170    0.392015   -0.890904
      2          8           0       -5.973487   -0.535849    0.227281
      3          6           0       -4.843313   -1.012192    0.704327
      4          6           0       -3.622008   -0.553086    0.039164
      5          6           0       -2.458317   -1.050828    0.523153
      6          6           0       -1.141756   -0.742468    0.023524
      7          6           0       -0.022247   -1.278348    0.538544
      8          6           0        1.351126   -1.023276    0.049544
      9          8           0        1.509156    0.110349   -0.749895
     10          7           0        1.827119    1.281555    0.036851
     11          6           0        0.924789    2.357479   -0.361346
     12          6           0        1.165978    3.572317    0.522792
     13          8           0        1.073161    4.707758    0.139194
     14          6           0        2.235302   -2.177283   -0.343209
     15          6           0        3.459872   -1.802094   -1.175207
     16          8           0        4.099239   -0.759975   -0.444858
     17          6           0        3.709594   -0.905865    0.917092
     18          7           0        2.396157   -1.532499    0.963529
     19          1           0       -5.572987    1.332646   -0.664435
     20          1           0       -7.148872    0.570955   -1.018993
     21          1           0       -5.667565   -0.048504   -1.801502
     22          1           0       -3.576292    0.144996   -0.800569
     23          1           0       -2.534478   -1.742425    1.360418
     24          1           0       -1.065363   -0.053357   -0.813375
     25          1           0       -0.085706   -1.986789    1.360305
     26          1           0        2.765623    1.496834   -0.298497
     27          1           0       -0.099834    2.022973   -0.155642
     28          1           0        0.987075    2.648330   -1.417558
     29          1           0        1.413074    3.321944    1.577582
     30          1           0        1.856319   -3.193923   -0.381002
     31          1           0        3.214414   -1.415000   -2.167022
     32          1           0        4.114469   -2.679869   -1.281533
     33          1           0        3.708019    0.077855    1.388530
     34          1           0        4.397528   -1.576532    1.452013
 ---------------------------------------------------------------------

 SCF Done:  E(RB3LYP) =  -877.087881975     A.U. after    1 cycles

 The electronic state is 1-A.
 Alpha  occ. eigenvalues --  -19.19669 -19.18568 -19.15910 -19.15559 -14.39470
 Alpha  occ. eigenvalues --  -14.35602 -10.28956 -10.28689 -10.26815 -10.24991
 Alpha  occ. eigenvalues --  -10.23929 -10.23540 -10.23405 -10.21434 -10.21200
 Alpha  occ. eigenvalues --  -10.20488 -10.20282 -10.18246  -1.10467  -1.06535
 Alpha  occ. eigenvalues --   -1.06497  -1.06216  -0.97175  -0.87951  -0.82865
 Alpha  occ. eigenvalues --   -0.78016  -0.76740  -0.72984  -0.71969  -0.69215
 Alpha  occ. eigenvalues --   -0.64492  -0.61944  -0.60177  -0.58787  -0.57393
 Alpha  occ. eigenvalues --   -0.55338  -0.53323  -0.52907  -0.51204  -0.49440
 Alpha  occ. eigenvalues --   -0.49221  -0.48051  -0.47715  -0.46577  -0.46093
 Alpha  occ. eigenvalues --   -0.45590  -0.45076  -0.44073  -0.43030  -0.42585
 Alpha  occ. eigenvalues --   -0.41532  -0.40183  -0.38137  -0.37660  -0.36825
 Alpha  occ. eigenvalues --   -0.36198  -0.35412  -0.34998  -0.33628  -0.32671
 Alpha  occ. eigenvalues --   -0.31253  -0.28314  -0.27078  -0.26586  -0.26328
 Alpha  occ. eigenvalues --   -0.23968  -0.18004
 Alpha virt. eigenvalues --   -0.07930  -0.04230   0.02083   0.05453   0.07570
 Alpha virt. eigenvalues --    0.08375   0.08916   0.10201   0.10573   0.10799
 Alpha virt. eigenvalues --    0.11256   0.11423   0.12194   0.12676   0.13355

 Mulliken charges:
               1
     1  C   -0.245889
     2  O   -0.138192
     3  C   -0.086227
     4  C   -0.193857
     5  C    0.012042
     6  C   -0.125180
     7  C   -0.104400
     8  C    0.405058
     9  O   -0.305237
    10  N   -0.243665
    11  C   -0.198111
    12  C    0.139482
    13  O   -0.225998
    14  C   -0.127247
    15  C   -0.105839
    16  O   -0.254469
    17  C   -0.058487
    18  N   -0.180201
    19  H    0.136695
    20  H    0.138490
    21  H    0.136582
    22  H    0.063511
    23  H    0.118427
    24  H    0.104188
    25  H    0.123396
    26  H    0.257833
    27  H    0.147581
    28  H    0.126571
    29  H    0.097403
    30  H    0.109314
    31  H    0.129650
    32  H    0.106363
    33  H    0.129300
    34  H    0.111112
 Sum of Mulliken charges =  -0.00000

 Dipole moment (field-independent basis, Debye):
    X=              2.7967    Y=             -0.7543    Z=             -2.6366  Tot=              3.9169
 Quadrupole moment (field-independent basis, Debye-Ang):
   XX=           -112.7738   YY=           -116.4588   ZZ=           -104.8354
   XY=            -16.9626   XZ=             14.5424   YZ=              4.3046

  Exact polarizability: 275.012 -26.208 152.923  11.935  -9.130 121.451
 Approx polarizability: 371.384 -41.273 223.424  23.056 -19.097 196.735

                      1                      2                      3
                      A                      A                      A
 Frequencies --     17.9720                26.2560                50.7936
 Red. masses --      4.1423                 6.8111                 4.4630
 Frc consts  --      0.0008                 0.0028                 0.0068
 IR Inten    --      2.3784                 2.2185                 2.5903

                      4                      5                      6
                      A                      A                      A
 Frequencies --     52.9183                57.8221                66.2412
 Red. masses --      3.9875                 5.6723                 2.5594
 Frc consts  --      0.0066                 0.0112                 0.0066
 IR Inten    --      1.3420                 2.6862                 3.7131

                      7                      8                      9
                      A                      A                      A
 Frequencies --     79.6888                97.3850               144.5717
 Red. masses --      3.0448                 3.0729                 4.4545
 Frc consts  --      0.0114                 0.0172                 0.0549
 IR Inten    --      4.1602                 9.3112                 0.9504

                     10                     11                     12
                      A                      A                      A
 Frequencies --    154.4099               186.2288               201.9422
 Red. masses --      2.8065                 2.2013                 3.1094
 Frc consts  --      0.0394                 0.0450                 0.0747
 IR Inten    --      0.5805                 2.1691                 1.8302

                     13                     14                     15
                      A                      A                      A
 Frequencies --    207.9848               219.1541               234.9216
 Red. masses --      2.2697                 2.8169                 2.9152
 Frc consts  --      0.0578                 0.0797                 0.0948
 IR Inten    --      1.3479                 2.1281                 0.6948

                     16                     17                     18
                      A                      A                      A
 Frequencies --    254.7718               279.3660               320.0926
 Red. masses --      3.0766                 2.9841                 3.2882
 Frc consts  --      0.1177                 0.1372                 0.1985
 IR Inten    --      1.6517                 8.7202                 9.3096

                     19                     20                     21
                      A                      A                      A
 Frequencies --    332.9054               350.5039               388.8245
 Red. masses --      4.2046                 3.2592                 3.9180
 Frc consts  --      0.2745                 0.2359                 0.3490
 IR Inten    --      3.0756                 0.1096                 7.7593

                     22                     23                     24
                      A                      A                      A
 Frequencies --    424.8403               478.0997               506.0133
 Red. masses --      4.5665                 5.2107                 4.2818
 Frc consts  --      0.4856                 0.7018                 0.6460
 IR Inten    --      6.9100                 0.2706                13.7752

                     25                     26                     27
                      A                      A                      A
 Frequencies --    528.6895               567.2383               597.3066
 Red. masses --      3.8629                 4.2887                 3.5882
 Frc consts  --      0.6362                 0.8130                 0.7543
 IR Inten    --      9.6544                14.2097                 3.0962

                     28                     29                     30
                      A                      A                      A
 Frequencies --    639.1088               741.2515               768.5607
 Red. masses --      3.7465                 6.2170                 2.4656
 Frc consts  --      0.9016                 2.0126                 0.8581
 IR Inten    --      2.2958                 3.3788                 0.8238

                     31                     32                     33
                      A                      A                      A
 Frequencies --    775.4105               801.8191               822.1645
 Red. masses --      2.1849                 3.2808                 3.5353
 Frc consts  --      0.7740                 1.2427                 1.4080
 IR Inten    --     15.4789                 4.8297                 8.6429

                     34                     35                     36
                      A                      A                      A
 Frequencies --    854.2868               866.4476               908.3916
 Red. masses --      7.8781                 2.1164                 3.5389
 Frc consts  --      3.3875                 0.9361                 1.7205
 IR Inten    --      9.4850                15.9575                 5.5510

                     37                     38                     39
                      A                      A                      A
 Frequencies --    915.3015               932.6202               949.5242
 Red. masses --      3.0051                 3.3720                 3.6766
 Frc consts  --      1.4833                 1.7280                 1.9530
 IR Inten    --     40.7099                14.9667                29.1946

                     40                     41                     42
                      A                      A                      A
 Frequencies --    967.3981               998.5110              1003.9073
 Red. masses --      2.1283                 1.5091                 1.4017
 Frc consts  --      1.1735                 0.8865                 0.8323
 IR Inten    --     26.8765                 8.7488                 4.1999

                     43                     44                     45
                      A                      A                      A
 Frequencies --   1009.3900              1032.8097              1058.2538
 Red. masses --      1.4917                 3.6209                 1.1404
 Frc consts  --      0.8955                 2.2757                 0.7525
 IR Inten    --      4.6720                40.6354                30.0744

                     46                     47                     48
                      A                      A                      A
 Frequencies --   1060.9914              1075.7595              1088.8306
 Red. masses --      4.0865                 4.8474                 5.0680
 Frc consts  --      2.7104                 3.3051                 3.5400
 IR Inten    --     53.3517                79.2055               241.8644

                     49                     50                     51
                      A                      A                      A
 Frequencies --   1113.7204              1121.3069              1126.5040
 Red. masses --      4.3048                 1.8481                 1.2962
 Frc consts  --      3.1460                 1.3691                 0.9691
 IR Inten    --     14.6174                26.0765                 1.5778

                     52                     53                     54
                      A                      A                      A
 Frequencies --   1132.2981              1144.1831              1159.2845
 Red. masses --      1.7348                 1.6943                 1.6138
 Frc consts  --      1.3105                 1.3069                 1.2778
 IR Inten    --     26.5036               154.2984                 6.2421

                     55                     56                     57
                      A                      A                      A
 Frequencies --   1182.5378              1204.3420              1222.7310
 Red. masses --      2.3508                 1.3933                 1.0912
 Frc consts  --      1.9368                 1.1907                 0.9612
 IR Inten    --      5.9159                67.1695                 5.6091

                     58                     59                     60
                      A                      A                      A
 Frequencies --   1244.3066              1249.7882              1263.8252
 Red. masses --      1.6380                 2.2839                 1.6784
 Frc consts  --      1.4942                 2.1018                 1.5795
 IR Inten    --      2.2358                56.9140               167.0171

                     61                     62                     63
                      A                      A                      A
 Frequencies --   1270.1980              1284.0339              1311.8075
 Red. masses --      1.5143                 1.6581                 1.5392
 Frc consts  --      1.4395                 1.6107                 1.5606
 IR Inten    --    167.0867                43.3277                 3.7347

                     64                     65                     66
                      A                      A                      A
 Frequencies --   1319.0414              1320.4820              1341.4546
 Red. masses --      1.3992                 1.3803                 1.8361
 Frc consts  --      1.4343                 1.4180                 1.9467
 IR Inten    --      1.8444                16.9740               165.8784

                     67                     68                     69
                      A                      A                      A
 Frequencies --   1353.1022              1360.4298              1410.8624
 Red. masses --      1.2721                 2.1262                 1.2087
 Frc consts  --      1.3722                 2.3185                 1.4176
 IR Inten    --     10.5354                24.6176                 4.8247

                     70                     71                     72
                      A                      A                      A
 Frequencies --   1414.9354              1455.6439              1475.9810
 Red. masses --      1.4629                 1.2929                 1.1107
 Frc consts  --      1.7256                 1.6141                 1.4257
 IR Inten    --     21.5497                23.3450                 1.6465

                     73                     74                     75
                      A                      A                      A
 Frequencies --   1485.3162              1488.4314              1494.0800
 Red. masses --      1.1015                 1.0603                 1.0522
 Frc consts  --      1.4317                 1.3840                 1.3838
 IR Inten    --     24.8802                42.7631                 6.3349

                     76                     77                     78
                      A                      A                      A
 Frequencies --   1503.2554              1522.1783              1632.5427
 Red. masses --      1.0861                 1.0958                 6.0650
 Frc consts  --      1.4460                 1.4960                 9.5237
 IR Inten    --      0.9548                 1.3637               154.9465

                     79                     80                     81
                      A                      A                      A
 Frequencies --   1687.1675              1839.4743              2900.5800
 Red. masses --      5.8673                10.2490                 1.0841
 Frc consts  --      9.8403                20.4323                 5.3739
 IR Inten    --    125.9788               175.3249                72.3308

                     82                     83                     84
                      A                      A                      A
 Frequencies --   2996.9563              3003.5860              3022.4532
 Red. masses --      1.0692                 1.0711                 1.0565
 Frc consts  --      5.6581                 5.6932                 5.6866
 IR Inten    --     55.9515               103.6090                21.4353

                     85                     86                     87
                      A                      A                      A
 Frequencies --   3043.1386              3072.9008              3080.2053
 Red. masses --      1.0312                 1.1041                 1.0843
 Frc consts  --      5.6266                 6.1427                 6.0612
 IR Inten    --     19.7374                11.0713                37.7528

                     88                     89                     90
                      A                      A                      A
 Frequencies --   3099.7542              3123.9611              3129.7426
 Red. masses --      1.0938                 1.0952                 1.1068
 Frc consts  --      6.1922                 6.2975                 6.3878
 IR Inten    --     14.0449                17.5129                21.5310

                     91                     92                     93
                      A                      A                      A
 Frequencies --   3153.6453              3155.7671              3158.7095
 Red. masses --      1.1052                 1.0883                 1.0914
 Frc consts  --      6.4764                 6.3856                 6.4161
 IR Inten    --     22.2114                 0.8870                14.0038

                     94                     95                     96
                      A                      A                      A
 Frequencies --   3167.3711              3174.2761              3461.1678
 Red. masses --      1.0908                 1.0860                 1.0754
 Frc consts  --      6.4478                 6.4473                 7.5901
 IR Inten    --      2.6272                11.1865                 5.2147

 - Thermochemistry -
 -------------------
 Temperature   298.150 Kelvin.  Pressure   1.00000 Atm.
 Atom     1 has atomic number  6 and mass  12.00000

 Molecular mass:   252.11101 amu.
 Principal axes and moments of inertia in atomic units:
                           1         2         3
     Eigenvalues --  3505.534249738.70398**********
           X            0.99988  -0.01362   0.00789
           Y            0.01362   0.99991  -0.00055
           Z           -0.00789   0.00066   0.99997
 This molecule is an asymmetric top.
 Rotational symmetry number  1.
 Warning -- assumption of classical behavior for rotation
           may cause significant error
 Rotational temperatures (Kelvin)      0.02471     0.00889     0.00694
 Rotational constants (GHZ):           0.51483     0.18532     0.14456
 Zero-point vibrational energy     711641.3 (Joules/Mol)
                                  170.08636 (Kcal/Mol)
 Warning -- explicit consideration of  27 degrees of freedom as
           vibrations may cause significant error
 Vibrational temperatures:     25.86    37.78    73.08    76.14    83.19
          (Kelvin)             95.31   114.65   140.12   208.01   222.16
                              267.94   290.55   299.24   315.31   338.00
                              366.56   401.95   460.54   478.98   504.30
                              559.43   611.25   687.88   728.04   760.67
                              816.13   859.39   919.54  1066.50  1105.79
                             1115.64  1153.64  1182.91  1229.13  1246.62
                             1306.97  1316.91  1341.83  1366.15  1391.87
                             1436.63  1444.40  1452.29  1485.98  1522.59
                             1526.53  1547.78  1566.58  1602.40  1613.31
                             1620.79  1629.12  1646.22  1667.95  1701.41
                             1732.78  1759.24  1790.28  1798.17  1818.36
                             1827.53  1847.44  1887.40  1897.81  1899.88
                             1930.05  1946.81  1957.36  2029.92  2035.78
                             2094.35  2123.61  2137.04  2141.52  2149.65
                             2162.85  2190.08  2348.86  2427.46  2646.59
                             4173.29  4311.95  4321.49  4348.64  4378.40
                             4421.22  4431.73  4459.85  4494.68  4503.00
                             4537.39  4540.44  4544.68  4557.14  4567.08
                             4979.85

 Zero-point correction=                           0.271050 (Hartree/Particle)
 Thermal correction to Energy=                    0.289697
 Thermal correction to Enthalpy=                  0.290641
 Thermal correction to Gibbs Free Energy=         0.220873
 Sum of electronic and zero-point Energies=           -876.816832
 Sum of electronic and thermal Energies=              -876.798185
 Sum of electronic and thermal Enthalpies=            -876.797241
 Sum of electronic and thermal Free Energies=         -876.867009

                     E (Thermal)             CV                S
                      KCal/Mol        Cal/Mol-Kelvin    Cal/Mol-Kelvin
 Total                  181.788             66.784            146.839
 Electronic               0.000              0.000              0.000
 Translational            0.889              2.981             42.474
 Rotational               0.889              2.981             34.410
 Vibrational            180.010             60.823             69.955
 Vibration     1          0.593              1.986              6.847
 Vibration     2          0.593              1.985              6.094
 Vibration     3          0.595              1.977              4.786
 Vibration     4          0.596              1.976              4.705
 Vibration     5          0.596              1.974              4.530
 Vibration     6          0.598              1.970              4.262
 Vibration     7          0.600              1.963              3.899
 Vibration     8          0.603              1.951              3.506
 Vibration     9          0.616              1.909              2.742
 Vibration    10          0.620              1.898              2.617
 Vibration    11          0.632              1.859              2.265
 Vibration    12          0.639              1.837              2.115
 Vibration    13          0.641              1.828              2.061
 Vibration    14          0.647              1.812              1.966
 Vibration    15          0.655              1.787              1.841
 Vibration    16          0.665              1.755              1.697
 Vibration    17          0.680              1.712              1.538
 Vibration    18          0.706              1.635              1.310
 Vibration    19          0.715              1.610              1.246
 Vibration    20          0.727              1.574              1.164
 Vibration    21          0.757              1.494              1.005
 Vibration    22          0.787              1.416              0.876
 Vibration    23          0.835              1.299              0.715
 Vibration    24          0.861              1.237              0.643
 Vibration    25          0.884              1.187              0.590
 Vibration    26          0.923              1.102              0.510
 Vibration    27          0.955              1.038              0.454

                           ! Non-Optimized Parameters !
 Normal termination of Gaussian 16 at Sat May 20 20:14:17 2023.
