 Gaussian 16, Revision A.03,
 Gaussian 16:  ES64L-G16RevA.03 25-Dec-2016

 -----------------------------
 # opt freq b3lyp/6-31g(2df,p)
 -----------------------------

 -------------------
 Title Card Required
 -------------------
 Symbolic Z-matrix:
 Charge =  0 Multiplicity = 1

 SCF Done:  E(RB3LYP) =  -1051.93391438     A.U. after   30 cycles
 SCF Done:  E(RB3LYP) =  -1052.11274212     A.U. after   24 cycles
 SCF Done:  E(RB3LYP) =  -1052.34036138     A.U. after   19 cycles
 SCF Done:  E(RB3LYP) =  -1052.51301582     A.U. after   24 cycles
 SCF Done:  E(RB3LYP) =  -1052.71627571     A.U. after   23 cycles
 SCF Done:  E(RB3LYP) =  -1052.73795518     A.U. after   19 cycles
 SCF Done:  E(RB3LYP) =  -1052.84090013     A.U. after   19 cycles
 SCF Done:  E(RB3LYP) =  -1052.84502606     A.U. after   21 cycles
 SCF Done:  E(RB3LYP) =  -1052.91520552     A.U. after   25 cycles
 SCF Done:  E(RB3LYP) =  -1052.91661491     A.U. after   19 cycles
 SCF Done:  E(RB3LYP) =  -1053.20330441     A.U. after   13 cycles
 SCF Done:  E(RB3LYP) =  -1053.20331387     A.U. after   13 cycles
 SCF Done:  E(RB3LYP) =  -1053.20332508     A.U. after   11 cycles
 SCF Done:  E(RB3LYP) =  -1053.20332716     A.U. after   12 cycles
 SCF Done:  E(RB3LYP) =  -1053.20332798     A.U. after    9 cycles
 SCF Done:  E(RB3LYP) =  -1053.20332832     A.U. after    7 cycles
 SCF Done:  E(RB3LYP) =  -1053.20332839     A.U. after    8 cycles
 SCF Done:  E(RB3LYP) =  -1053.20332844     A.U. after    8 cycles
 SCF Done:  E(RB3LYP) =  -1053.20332845     A.U. after    8 cycles
 Optimization completed.
    -- Stationary point found.
 Normal termination of Gaussian 16 at Fri May 19 20:39:24 2023.

 ----------------------------------------------------------------------
 #N Geom=AllCheck Guess=TCheck SCRF=Check GenChk RB3LYP/6-31G(2df,p) Fr
 eq
 ----------------------------------------------------------------------

 Structure from the checkpoint file:  "COC1dCCdCCdCCdc2ccccc2dCS1.chk"
 -------------------
 Title Card Required
 -------------------
 Charge =  0 Multiplicity = 1

                         Standard orientation:
 ---------------------------------------------------------------------
 Center     Atomic      Atomic             Coordinates (Angstroms)
 Number     Number       Type             X           Y           Z
 ---------------------------------------------------------------------
      1          6           0       -6.789959    1.857349   -0.411375
      2          8           0       -5.595664    1.129079   -0.725341
      3          6           0       -4.716125    1.003514    0.250074
      4          6           0       -3.587210    0.237520   -0.292718
      5          6           0       -2.564471   -0.018879    0.540803
      6          6           0       -1.309648   -0.745122    0.235169
      7          6           0       -0.101215   -0.102236    0.782396
      8          6           0        1.113282   -0.028653    0.184051
      9          6           0        2.200130    0.705347    0.715413
     10          6           0        3.494776    0.667520    0.185222
     11          6           0        4.535487    1.480997    0.741235
     12          6           0        5.806440    1.362191    0.242158
     13          6           0        6.094180    0.362326   -0.715207
     14          6           0        5.119032   -0.549078   -1.123191
     15          6           0        3.781992   -0.281152   -0.843027
     16          6           0       -1.234360   -1.674127   -0.913858
     17         16           0       -1.436300   -2.611295    0.643775
     18          1           0       -7.644444    1.194636   -0.573607
     19          1           0       -6.858605    2.708081   -1.094970
     20          1           0       -6.745754    2.191618    0.626942
     21          1           0       -3.580564   -0.097609   -1.331650
     22          1           0       -2.644721    0.374927    1.552150
     23          1           0       -2.088169   -1.721695   -1.580675
     24          1           0       -0.234180    0.354630    1.761455
     25          1           0        1.329327   -0.524264   -0.761036
     26          1           0        2.017639    1.318973    1.597657
     27          1           0        4.323362    2.127557    1.589725
     28          1           0        6.608345    1.991626    0.613213
     29          1           0        7.087358    0.330891   -1.158949
     30          1           0        5.399646   -1.356867   -1.795994
     31          1           0       -0.277114   -1.809527   -1.404805
 ---------------------------------------------------------------------

 SCF Done:  E(RB3LYP) =  -1053.20332845     A.U. after    1 cycles

 The electronic state is 1-A.
 Alpha  occ. eigenvalues --  -88.87836 -19.19843 -10.25939 -10.23596 -10.23564
 Alpha  occ. eigenvalues --  -10.22458 -10.22102 -10.21970 -10.21454 -10.20401
 Alpha  occ. eigenvalues --  -10.20305 -10.20011 -10.19794 -10.19233 -10.18789
 Alpha  occ. eigenvalues --  -10.18199 -10.16733  -7.94137  -5.90628  -5.90309
 Alpha  occ. eigenvalues --   -5.89596  -1.08394  -0.89228  -0.85991  -0.81776
 Alpha  occ. eigenvalues --   -0.79571  -0.76449  -0.74016  -0.73499  -0.69567
 Alpha  occ. eigenvalues --   -0.65228  -0.62947  -0.60569  -0.59664  -0.56822
 Alpha  occ. eigenvalues --   -0.55349  -0.54429  -0.52111  -0.49969  -0.48836
 Alpha  occ. eigenvalues --   -0.47271  -0.47163  -0.46438  -0.45052  -0.43358
 Alpha  occ. eigenvalues --   -0.42331  -0.41704  -0.40564  -0.39057  -0.38229
 Alpha  occ. eigenvalues --   -0.37962  -0.37316  -0.36721  -0.36304  -0.35112
 Alpha  occ. eigenvalues --   -0.34261  -0.33488  -0.31623  -0.27512  -0.25419
 Alpha  occ. eigenvalues --   -0.24692  -0.23172  -0.19830  -0.17622
 Alpha virt. eigenvalues --   -0.11822  -0.07032  -0.01784   0.00588   0.01526
 Alpha virt. eigenvalues --    0.04188   0.06636   0.06940   0.09318   0.10173
 Alpha virt. eigenvalues --    0.10319   0.11131   0.11273   0.12927   0.13144

 Mulliken charges:
               1
     1  C   -0.222601
     2  O   -0.131801
     3  C   -0.116386
     4  C   -0.142024
     5  C   -0.044890
     6  C    0.260798
     7  C   -0.132037
     8  C   -0.067280
     9  C   -0.146813
    10  C    0.288916
    11  C   -0.166636
    12  C   -0.086152
    13  C   -0.082649
    14  C   -0.114686
    15  C   -0.255747
    16  C   -0.304674
    17  S   -0.186408
    18  H    0.134172
    19  H    0.133053
    20  H    0.141305
    21  H    0.083908
    22  H    0.120939
    23  H    0.150142
    24  H    0.108535
    25  H    0.126155
    26  H    0.106195
    27  H    0.090779
    28  H    0.100806
    29  H    0.100363
    30  H    0.093796
    31  H    0.160925
 Sum of Mulliken charges =  -0.00000

 Dipole moment (field-independent basis, Debye):
    X=             -0.0797    Y=              2.2111    Z=             -0.2059  Tot=              2.2221
 Quadrupole moment (field-independent basis, Debye-Ang):
   XX=            -86.0580   YY=           -107.9655   ZZ=           -104.7700
   XY=             -0.3243   XZ=              9.5248   YZ=              4.4157

  Exact polarizability: 459.550  12.709 171.874 -25.977  16.583 141.801
 Approx polarizability: 704.144  13.292 309.654-110.210  40.534 298.519

                      1                      2                      3
                      A                      A                      A
 Frequencies --     14.8132                33.6970                49.9640
 Red. masses --      5.4164                 4.2774                 4.5287
 Frc consts  --      0.0007                 0.0029                 0.0067
 IR Inten    --      0.0823                 2.3403                 2.1284

                      4                      5                      6
                      A                      A                      A
 Frequencies --     57.8382                86.5166                93.0406
 Red. masses --      5.3965                 2.2451                 3.8089
 Frc consts  --      0.0106                 0.0099                 0.0194
 IR Inten    --      0.8764                 0.8822                 8.4737

                      7                      8                      9
                      A                      A                      A
 Frequencies --    106.0636               117.3789               165.0890
 Red. masses --      3.3661                 2.0371                 3.6095
 Frc consts  --      0.0223                 0.0165                 0.0580
 IR Inten    --      0.3505                15.8949                 9.1682

                     10                     11                     12
                      A                      A                      A
 Frequencies --    182.9997               223.8663               227.3530
 Red. masses --      4.5878                 2.8949                 5.7234
 Frc consts  --      0.0905                 0.0855                 0.1743
 IR Inten    --      8.2038                 2.0839                 1.9702

                     13                     14                     15
                      A                      A                      A
 Frequencies --    242.3688               252.5239               274.4427
 Red. masses --      2.4024                 3.2500                 3.1551
 Frc consts  --      0.0831                 0.1221                 0.1400
 IR Inten    --      2.7173                 0.9115                 2.1189

                     16                     17                     18
                      A                      A                      A
 Frequencies --    341.0822               364.1932               376.8869
 Red. masses --      4.5410                 3.4732                 4.8968
 Frc consts  --      0.3113                 0.2714                 0.4098
 IR Inten    --      1.1449                30.8452                33.8456

                     19                     20                     21
                      A                      A                      A
 Frequencies --    391.4798               437.6000               457.0840
 Red. masses --      4.7657                 4.6869                 4.0655
 Frc consts  --      0.4303                 0.5288                 0.5004
 IR Inten    --     11.4529                12.2545                 7.1050

                     22                     23                     24
                      A                      A                      A
 Frequencies --    475.0431               547.3628               558.4672
 Red. masses --      3.5438                 5.6797                 4.4671
 Frc consts  --      0.4712                 1.0026                 0.8209
 IR Inten    --     31.4418                82.9370                10.4252

                     25                     26                     27
                      A                      A                      A
 Frequencies --    590.4152               612.7240               643.7214
 Red. masses --      4.3779                 3.7452                 3.6470
 Frc consts  --      0.8991                 0.8284                 0.8904
 IR Inten    --     23.9644                 8.6488                14.7571

                     28                     29                     30
                      A                      A                      A
 Frequencies --    660.0825               699.2682               774.7300
 Red. masses --      5.3736                 3.3529                 1.5538
 Frc consts  --      1.3795                 0.9659                 0.5495
 IR Inten    --      6.0205                16.3885                24.6941

                     31                     32                     33
                      A                      A                      A
 Frequencies --    834.6033               836.6373               871.1892
 Red. masses --      2.0715                 3.8052                 1.8081
 Frc consts  --      0.8501                 1.5693                 0.8085
 IR Inten    --    135.7080                31.5721                11.9699

                     34                     35                     36
                      A                      A                      A
 Frequencies --    883.8513               899.0470               924.5474
 Red. masses --      2.7943                 1.9167                 1.1751
 Frc consts  --      1.2861                 0.9128                 0.5918
 IR Inten    --      5.3116                 0.2745                 0.3969

                     37                     38                     39
                      A                      A                      A
 Frequencies --    929.3889               934.3378               966.3195
 Red. masses --      2.1604                 1.4959                 1.7437
 Frc consts  --      1.0995                 0.7694                 0.9593
 IR Inten    --     17.3308                 3.7375                 1.1669

                     40                     41                     42
                      A                      A                      A
 Frequencies --    986.6111               988.0382              1008.4888
 Red. masses --      2.1065                 1.4692                 2.2108
 Frc consts  --      1.2081                 0.8450                 1.3248
 IR Inten    --      1.2725                 1.9575                38.3427

                     43                     44                     45
                      A                      A                      A
 Frequencies --   1022.2360              1025.6394              1037.7234
 Red. masses --      1.2339                 1.1931                 2.0283
 Frc consts  --      0.7597                 0.7395                 1.2869
 IR Inten    --      7.8988                46.9698                13.6173

                     46                     47                     48
                      A                      A                      A
 Frequencies --   1099.1429              1122.2736              1128.0025
 Red. masses --      1.2463                 2.2174                 1.9657
 Frc consts  --      0.8871                 1.6455                 1.4737
 IR Inten    --     16.3620                 8.8360                19.4399

                     49                     50                     51
                      A                      A                      A
 Frequencies --   1173.1827              1177.6658              1177.9054
 Red. masses --      1.7434                 1.2141                 1.1944
 Frc consts  --      1.4137                 0.9921                 0.9764
 IR Inten    --     53.0684                 3.2483                 1.0158

                     52                     53                     54
                      A                      A                      A
 Frequencies --   1183.6810              1196.9442              1230.5636
 Red. masses --      2.3281                 1.3615                 2.0540
 Frc consts  --      1.9218                 1.1493                 1.8325
 IR Inten    --    497.7917                12.2169                18.4006

                     55                     56                     57
                      A                      A                      A
 Frequencies --   1246.0000              1275.4770              1286.2007
 Red. masses --      1.4853                 1.7589                 2.4431
 Frc consts  --      1.3586                 1.6860                 2.3813
 IR Inten    --     10.5595                 4.9016                21.8962

                     58                     59                     60
                      A                      A                      A
 Frequencies --   1302.8006              1320.0838              1321.3743
 Red. masses --      2.7926                 1.7251                 2.1296
 Frc consts  --      2.7927                 1.7712                 2.1908
 IR Inten    --     91.6767               231.3180               133.0720

                     61                     62                     63
                      A                      A                      A
 Frequencies --   1363.0439              1363.2521              1394.2935
 Red. masses --      1.8675                 4.1311                 2.1764
 Frc consts  --      2.0442                 4.5234                 2.4929
 IR Inten    --      1.4479                24.1691                 1.2561

                     64                     65                     66
                      A                      A                      A
 Frequencies --   1434.0653              1459.4052              1483.3343
 Red. masses --      1.8704                 1.2084                 1.2146
 Frc consts  --      2.2664                 1.5163                 1.5746
 IR Inten    --      1.6804                13.2455                 7.2740

                     67                     68                     69
                      A                      A                      A
 Frequencies --   1487.7788              1495.7488              1504.8710
 Red. masses --      1.0484                 1.1026                 2.9953
 Frc consts  --      1.3673                 1.4534                 3.9966
 IR Inten    --      2.9709                12.2914                70.4462

                     70                     71                     72
                      A                      A                      A
 Frequencies --   1546.0315              1588.6423              1627.1495
 Red. masses --      3.9823                 4.7797                 5.0795
 Frc consts  --      5.6081                 7.1072                 7.9237
 IR Inten    --    141.2481               148.7461                15.4063

                     73                     74                     75
                      A                      A                      A
 Frequencies --   1668.0870              3040.2106              3100.0138
 Red. masses --      6.4993                 1.0283                 1.0891
 Frc consts  --     10.6550                 5.5998                 6.1665
 IR Inten    --    105.2729                86.5249                23.6701

                     76                     77                     78
                      A                      A                      A
 Frequencies --   3121.8410              3132.4599              3132.9973
 Red. masses --      1.1058                 1.0839                 1.0858
 Frc consts  --      6.3495                 6.2666                 6.2794
 IR Inten    --     19.3668                14.9521                11.6272

                     79                     80                     81
                      A                      A                      A
 Frequencies --   3137.6407              3142.0606              3146.3477
 Red. masses --      1.0710                 1.0756                 1.1066
 Frc consts  --      6.2123                 6.2563                 6.4542
 IR Inten    --      4.6702                 2.2582                 7.3571

                     82                     83                     84
                      A                      A                      A
 Frequencies --   3147.4157              3149.8125              3152.5289
 Red. masses --      1.0877                 1.0836                 1.0909
 Frc consts  --      6.3484                 6.3344                 6.3876
 IR Inten    --     26.1834                25.9013                62.5674

                     85                     86                     87
                      A                      A                      A
 Frequencies --   3159.2389              3190.3324              3224.8188
 Red. masses --      1.0874                 1.0945                 1.1168
 Frc consts  --      6.3943                 6.5634                 6.8430
 IR Inten    --      6.3865                30.6153                 1.2920

 - Thermochemistry -
 -------------------
 Temperature   298.150 Kelvin.  Pressure   1.00000 Atm.
 Atom     1 has atomic number  6 and mass  12.00000

 Molecular mass:   242.07654 amu.
 Principal axes and moments of inertia in atomic units:
                           1         2         3
     Eigenvalues --  1953.51676********************
           X            0.99998  -0.00593   0.00163
           Y            0.00586   0.99911   0.04178
           Z           -0.00187  -0.04177   0.99913
 This molecule is an asymmetric top.
 Rotational symmetry number  1.
 Warning -- assumption of classical behavior for rotation
           may cause significant error
 Rotational temperatures (Kelvin)      0.04434     0.00622     0.00575
 Rotational constants (GHZ):           0.92384     0.12950     0.11977
 Zero-point vibrational energy     633072.6 (Joules/Mol)
                                  151.30798 (Kcal/Mol)
 Warning -- explicit consideration of  26 degrees of freedom as
           vibrations may cause significant error
 Vibrational temperatures:     21.31    48.48    71.89    83.22   124.48
          (Kelvin)            133.86   152.60   168.88   237.53   263.30
                              322.09   327.11   348.71   363.33   394.86
                              490.74   523.99   542.26   563.25   629.61
                              657.64   683.48   787.53   803.51   849.48
                              881.57   926.17   949.71  1006.09  1114.66
                             1200.81  1203.73  1253.45  1271.66  1293.53
                             1330.22  1337.18  1344.30  1390.32  1419.51
                             1421.57  1450.99  1470.77  1475.67  1493.05
                             1581.42  1614.70  1622.94  1687.95  1694.40
                             1694.74  1703.05  1722.14  1770.51  1792.72
                             1835.13  1850.56  1874.44  1899.31  1901.16
                             1961.12  1961.42  2006.08  2063.30  2099.76
                             2134.19  2140.58  2152.05  2165.17  2224.39
                             2285.70  2341.11  2400.01  4374.19  4460.23
                             4491.63  4506.91  4507.68  4514.37  4520.72
                             4526.89  4528.43  4531.88  4535.79  4545.44
                             4590.18  4639.80

 Zero-point correction=                           0.241125 (Hartree/Particle)
 Thermal correction to Energy=                    0.258333
 Thermal correction to Enthalpy=                  0.259277
 Thermal correction to Gibbs Free Energy=         0.193267
 Sum of electronic and zero-point Energies=          -1052.962204
 Sum of electronic and thermal Energies=             -1052.944995
 Sum of electronic and thermal Enthalpies=           -1052.944051
 Sum of electronic and thermal Free Energies=        -1053.010062

                     E (Thermal)             CV                S
                      KCal/Mol        Cal/Mol-Kelvin    Cal/Mol-Kelvin
 Total                  162.107             62.936            138.931
 Electronic               0.000              0.000              0.000
 Translational            0.889              2.981             42.353
 Rotational               0.889              2.981             34.372
 Vibrational            160.329             56.974             62.206
 Vibration     1          0.593              1.986              7.230
 Vibration     2          0.594              1.983              5.599
 Vibration     3          0.595              1.978              4.819
 Vibration     4          0.596              1.974              4.530
 Vibration     5          0.601              1.959              3.737
 Vibration     6          0.602              1.954              3.595
 Vibration     7          0.605              1.944              3.340
 Vibration     8          0.608              1.935              3.143
 Vibration     9          0.623              1.885              2.491
 Vibration    10          0.630              1.863              2.298
 Vibration    11          0.649              1.805              1.928
 Vibration    12          0.651              1.799              1.900
 Vibration    13          0.659              1.775              1.785
 Vibration    14          0.664              1.759              1.713
 Vibration    15          0.677              1.721              1.568
 Vibration    16          0.721              1.593              1.207
 Vibration    17          0.738              1.546              1.104
 Vibration    18          0.747              1.519              1.052
 Vibration    19          0.759              1.488              0.994
 Vibration    20          0.798              1.388              0.834
 Vibration    21          0.815              1.345              0.775
 Vibration    22          0.832              1.305              0.724
 Vibration    23          0.903              1.145              0.550
 Vibration    24          0.914              1.121              0.527
 Vibration    25          0.948              1.052              0.466
 Vibration    26          0.972              1.005              0.428

                           ! Non-Optimized Parameters !
 Normal termination of Gaussian 16 at Fri May 19 22:54:12 2023.
