 Gaussian 16, Revision A.03,
 Gaussian 16:  ES64L-G16RevA.03 25-Dec-2016

 -----------------------------
 # opt freq b3lyp/6-31g(2df,p)
 -----------------------------

 -------------------
 Title Card Required
 -------------------
 Symbolic Z-matrix:
 Charge =  0 Multiplicity = 1

 SCF Done:  E(RB3LYP) =  -610.964755069     A.U. after   24 cycles
 SCF Done:  E(RB3LYP) =  -611.046900969     A.U. after   21 cycles
 SCF Done:  E(RB3LYP) =  -611.192972856     A.U. after   21 cycles
 SCF Done:  E(RB3LYP) =  -611.268678404     A.U. after   23 cycles
 SCF Done:  E(RB3LYP) =  -611.275105867     A.U. after   26 cycles
 SCF Done:  E(RB3LYP) =  -611.244821844     A.U. after   40 cycles
 SCF Done:  E(RB3LYP) =  -611.331271011     A.U. after   28 cycles
 SCF Done:  E(RB3LYP) =  -611.350865735     A.U. after   21 cycles
 SCF Done:  E(RB3LYP) =  -611.353217591     A.U. after   17 cycles
 SCF Done:  E(RB3LYP) =  -611.375901884     A.U. after   22 cycles
 SCF Done:  E(RB3LYP) =  -611.494299663     A.U. after   13 cycles
 SCF Done:  E(RB3LYP) =  -611.494509655     A.U. after    9 cycles
 SCF Done:  E(RB3LYP) =  -611.494464666     A.U. after   12 cycles
 SCF Done:  E(RB3LYP) =  -611.494519661     A.U. after   13 cycles
 SCF Done:  E(RB3LYP) =  -611.494532743     A.U. after   11 cycles
 SCF Done:  E(RB3LYP) =  -611.494538024     A.U. after    9 cycles
 SCF Done:  E(RB3LYP) =  -611.494540078     A.U. after    9 cycles
 SCF Done:  E(RB3LYP) =  -611.494540607     A.U. after    8 cycles
 SCF Done:  E(RB3LYP) =  -611.494540666     A.U. after    7 cycles
 Optimization completed.
    -- Stationary point found.
 Normal termination of Gaussian 16 at Fri May 19 22:38:53 2023.

 ----------------------------------------------------------------------
 #N Geom=AllCheck Guess=TCheck SCRF=Check GenChk RB3LYP/6-31G(2df,p) Fr
 eq
 ----------------------------------------------------------------------

 Structure from the checkpoint file:  "COc1ccc2ccccqdOroc1-2.chk"
 -------------------
 Title Card Required
 -------------------
 Charge =  0 Multiplicity = 1

                         Standard orientation:
 ---------------------------------------------------------------------
 Center     Atomic      Atomic             Coordinates (Angstroms)
 Number     Number       Type             X           Y           Z
 ---------------------------------------------------------------------
      1          6           0        4.605102   -0.827371   -0.000113
      2          8           0        3.223040   -1.156871   -0.000128
      3          6           0        2.381107   -0.122004   -0.000120
      4          6           0        2.553451    1.212143   -0.000083
      5          6           0        1.217075    1.853397    0.000004
      6          6           0        0.208704    0.946922    0.000097
      7          6           0       -1.207452    1.184919    0.000117
      8          6           0       -2.170833    0.235878   -0.000013
      9          6           0       -3.585879    0.535232    0.000050
     10          6           0       -4.535987   -0.384038   -0.000224
     11          8           0       -5.381961   -1.180893   -0.000132
     12          8           0        0.382458   -1.507400    0.000425
     13          6           0        0.881686   -0.410415    0.000103
     14          1           0        5.150514   -1.771289   -0.000144
     15          1           0        4.865869   -0.246497    0.893465
     16          1           0        4.865855   -0.246428   -0.893651
     17          1           0        3.483442    1.760927   -0.000023
     18          1           0        1.087840    2.929082   -0.000174
     19          1           0       -1.505620    2.233191    0.000338
     20          1           0       -1.879736   -0.808449   -0.000182
     21          1           0       -3.938306    1.562793    0.000138
 ---------------------------------------------------------------------

 SCF Done:  E(RB3LYP) =  -611.494540666     A.U. after    1 cycles

 The electronic state is 1-A.
 Alpha  occ. eigenvalues --  -19.21557 -19.18985 -19.14806 -10.30700 -10.27643
 Alpha  occ. eigenvalues --  -10.24789 -10.24452 -10.20297 -10.20068 -10.19627
 Alpha  occ. eigenvalues --  -10.19186 -10.18862 -10.18458  -1.12093  -1.08682
 Alpha  occ. eigenvalues --   -1.05103  -0.86046  -0.81981  -0.76626  -0.73464
 Alpha  occ. eigenvalues --   -0.69272  -0.65345  -0.60062  -0.56468  -0.54370
 Alpha  occ. eigenvalues --   -0.52976  -0.50655  -0.49694  -0.48157  -0.47633
 Alpha  occ. eigenvalues --   -0.46199  -0.45506  -0.44259  -0.42476  -0.42103
 Alpha  occ. eigenvalues --   -0.41339  -0.40017  -0.38767  -0.36921  -0.35232
 Alpha  occ. eigenvalues --   -0.35110  -0.33563  -0.30284  -0.25304  -0.24246
 Alpha  occ. eigenvalues --   -0.17863
 Alpha virt. eigenvalues --   -0.08834  -0.03812  -0.00561   0.08883   0.09254
 Alpha virt. eigenvalues --    0.09334   0.09844   0.11785   0.12001   0.13370
 Alpha virt. eigenvalues --    0.14261   0.14717   0.15825   0.16142   0.17000

 Mulliken charges:
               1
     1  C   -0.248017
     2  O   -0.233940
     3  C    0.308426
     4  C   -0.290182
     5  C   -0.213168
     6  C    0.191999
     7  C   -0.168017
     8  C   -0.119214
     9  C   -0.402279
    10  C    0.476123
    11  O   -0.211593
    12  O   -0.306010
    13  C    0.240263
    14  H    0.144925
    15  H    0.130131
    16  H    0.130131
    17  H    0.111798
    18  H    0.109339
    19  H    0.073151
    20  H    0.134427
    21  H    0.141706
 Sum of Mulliken charges =  -0.00000

 Dipole moment (field-independent basis, Debye):
    X=              2.7947    Y=              3.1097    Z=             -0.0007  Tot=              4.1810
 Quadrupole moment (field-independent basis, Debye-Ang):
   XX=            -59.0922   YY=            -72.8319   ZZ=            -75.0026
   XY=             -4.5752   XZ=              0.0005   YZ=              0.0014

  Exact polarizability: 262.974  24.945 118.505   0.002   0.002  53.902
 Approx polarizability: 406.295  90.256 234.631   0.005   0.004  86.467

                      1                      2                      3
                      A                      A                      A
 Frequencies --     44.9947                60.5560                84.8296
 Red. masses --      6.6900                 8.5202                 3.9700
 Frc consts  --      0.0080                 0.0184                 0.0168
 IR Inten    --      2.5617                 0.5795                 2.7882

                      4                      5                      6
                      A                      A                      A
 Frequencies --    124.0002               160.7770               166.5128
 Red. masses --      4.3261                 5.5559                 2.4250
 Frc consts  --      0.0392                 0.0846                 0.0396
 IR Inten    --      0.1593                 4.9206                 0.7201

                      7                      8                      9
                      A                      A                      A
 Frequencies --    185.8968               221.3867               223.1034
 Red. masses --      1.9612                 4.7893                 1.3977
 Frc consts  --      0.0399                 0.1383                 0.0410
 IR Inten    --      0.0038                 0.0220                 0.0518

                     10                     11                     12
                      A                      A                      A
 Frequencies --    289.5659               333.9986               368.9422
 Red. masses --      6.1512                 6.1297                 4.0554
 Frc consts  --      0.3039                 0.4029                 0.3252
 IR Inten    --      1.0162                 2.4673                 1.8524

                     13                     14                     15
                      A                      A                      A
 Frequencies --    380.9023               401.8398               496.6278
 Red. masses --      4.0828                 5.3432                 2.6682
 Frc consts  --      0.3490                 0.5083                 0.3877
 IR Inten    --      0.1745                 1.6338                 0.1583

                     16                     17                     18
                      A                      A                      A
 Frequencies --    518.7563               555.2361               617.5898
 Red. masses --      8.9098                 6.0503                 5.6664
 Frc consts  --      1.4127                 1.0990                 1.2734
 IR Inten    --      5.7820                45.2443                16.0160

                     19                     20                     21
                      A                      A                      A
 Frequencies --    641.4766               675.7951               694.4757
 Red. masses --      1.4381                 5.6887                 5.2931
 Frc consts  --      0.3486                 1.5307                 1.5041
 IR Inten    --     29.0957                 6.4536                32.5098

                     22                     23                     24
                      A                      A                      A
 Frequencies --    775.8134               808.7877               827.9474
 Red. masses --      5.6396                 3.7416                 1.6105
 Frc consts  --      1.9999                 1.4421                 0.6505
 IR Inten    --      8.5675                 1.0963                40.5741

                     25                     26                     27
                      A                      A                      A
 Frequencies --    862.0741               902.5735               919.4064
 Red. masses --      1.7830                 1.7888                 6.5583
 Frc consts  --      0.7807                 0.8586                 3.2663
 IR Inten    --      1.0069                 4.3091                16.3121

                     28                     29                     30
                      A                      A                      A
 Frequencies --    996.5594              1006.8025              1077.4179
 Red. masses --      1.7459                 1.0944                 7.2290
 Frc consts  --      1.0216                 0.6536                 4.9442
 IR Inten    --      9.5062                32.0427               119.8483

                     31                     32                     33
                      A                      A                      A
 Frequencies --   1090.3474              1157.1351              1178.0138
 Red. masses --      4.6170                 1.4102                 1.2807
 Frc consts  --      3.2340                 1.1125                 1.0472
 IR Inten    --     88.4238                18.8197                 1.3596

                     34                     35                     36
                      A                      A                      A
 Frequencies --   1208.0226              1235.8998              1257.6931
 Red. masses --      1.3782                 1.5518                 2.5216
 Frc consts  --      1.1850                 1.3966                 2.3501
 IR Inten    --      1.2333                 9.4537                15.0786

                     37                     38                     39
                      A                      A                      A
 Frequencies --   1284.3013              1320.8042              1338.6930
 Red. masses --      1.8283                 4.3410                 1.4487
 Frc consts  --      1.7768                 4.4619                 1.5297
 IR Inten    --     82.0388               134.4125                11.4752

                     40                     41                     42
                      A                      A                      A
 Frequencies --   1340.8979              1424.0471              1471.2202
 Red. masses --      2.2785                 3.0871                 1.2408
 Frc consts  --      2.4138                 3.6884                 1.5823
 IR Inten    --     13.9944                 1.2147                23.4695

                     43                     44                     45
                      A                      A                      A
 Frequencies --   1484.5547              1501.0112              1608.7087
 Red. masses --      1.0462                 1.0468                 7.0124
 Frc consts  --      1.3585                 1.3896                10.6923
 IR Inten    --      7.5392                23.2169               153.4622

                     46                     47                     48
                      A                      A                      A
 Frequencies --   1660.2872              1689.4782              1826.4111
 Red. masses --      5.4109                 6.8122                12.9029
 Frc consts  --      8.7879                11.4562                25.3592
 IR Inten    --     66.6267               308.5076                94.1091

                     49                     50                     51
                      A                      A                      A
 Frequencies --   2213.8388              3010.2755              3072.1391
 Red. masses --     12.5975                 1.0338                 1.1049
 Frc consts  --     36.3770                 5.5195                 6.1440
 IR Inten    --   1735.8358                75.2340                32.0315

                     52                     53                     54
                      A                      A                      A
 Frequencies --   3122.9503              3148.7936              3168.9856
 Red. masses --      1.0875                 1.1003                 1.0852
 Frc consts  --      6.2488                 6.4275                 6.4210
 IR Inten    --     27.4748                16.5820                 5.3617

                     55                     56                     57
                      A                      A                      A
 Frequencies --   3202.0494              3203.5321              3239.3008
 Red. masses --      1.0885                 1.0924                 1.0958
 Frc consts  --      6.5755                 6.6052                 6.7749
 IR Inten    --      1.5919                28.4031                17.9769

 - Thermochemistry -
 -------------------
 Temperature   298.150 Kelvin.  Pressure   1.00000 Atm.
 Atom     1 has atomic number  6 and mass  12.00000

 Molecular mass:   176.04734 amu.
 Principal axes and moments of inertia in atomic units:
                           1         2         3
     Eigenvalues --   740.603095876.705026605.81362
           X            0.99998  -0.00677  -0.00000
           Y            0.00677   0.99998   0.00000
           Z            0.00000  -0.00000   1.00000
 This molecule is an asymmetric top.
 Rotational symmetry number  1.
 Warning -- assumption of classical behavior for rotation
           may cause significant error
 Rotational temperatures (Kelvin)      0.11695     0.01474     0.01311
 Rotational constants (GHZ):           2.43685     0.30710     0.27320
 Zero-point vibrational energy     406036.7 (Joules/Mol)
                                   97.04510 (Kcal/Mol)
 Warning -- explicit consideration of  18 degrees of freedom as
           vibrations may cause significant error
 Vibrational temperatures:     64.74    87.13   122.05   178.41   231.32
          (Kelvin)            239.57   267.46   318.53   321.00   416.62
                              480.55   530.83   548.03   578.16   714.54
                              746.37   798.86   888.57   922.94   972.32
                              999.20  1116.22  1163.67  1191.23  1240.33
                             1298.60  1322.82  1433.83  1448.56  1550.16
                             1568.77  1664.86  1694.90  1738.08  1778.18
                             1809.54  1847.82  1900.34  1926.08  1929.25
                             2048.89  2116.76  2135.94  2159.62  2314.57
                             2388.78  2430.78  2627.80  3185.22  4331.12
                             4420.12  4493.23  4530.41  4559.46  4607.03
                             4609.17  4660.63

 Zero-point correction=                           0.154651 (Hartree/Particle)
 Thermal correction to Energy=                    0.167092
 Thermal correction to Enthalpy=                  0.168036
 Thermal correction to Gibbs Free Energy=         0.115117
 Sum of electronic and zero-point Energies=           -611.339889
 Sum of electronic and thermal Energies=              -611.327449
 Sum of electronic and thermal Enthalpies=            -611.326505
 Sum of electronic and thermal Free Energies=         -611.379424

                     E (Thermal)             CV                S
                      KCal/Mol        Cal/Mol-Kelvin    Cal/Mol-Kelvin
 Total                  104.852             44.966            111.378
 Electronic               0.000              0.000              0.000
 Translational            0.889              2.981             41.404
 Rotational               0.889              2.981             31.731
 Vibrational            103.074             39.005             38.243
 Vibration     1          0.595              1.979              5.026
 Vibration     2          0.597              1.973              4.439
 Vibration     3          0.601              1.960              3.776
 Vibration     4          0.610              1.929              3.037
 Vibration     5          0.622              1.890              2.541
 Vibration     6          0.624              1.884              2.474
 Vibration     7          0.632              1.859              2.268
 Vibration     8          0.648              1.809              1.948
 Vibration     9          0.649              1.806              1.934
 Vibration    10          0.686              1.693              1.476
 Vibration    11          0.716              1.608              1.241
 Vibration    12          0.741              1.536              1.084
 Vibration    13          0.751              1.511              1.036
 Vibration    14          0.767              1.466              0.956
 Vibration    15          0.852              1.257              0.667
 Vibration    16          0.874              1.208              0.613
 Vibration    17          0.911              1.128              0.533
 Vibration    18          0.977              0.995              0.420

 Optimization completed.
    -- Stationary point found.
 Normal termination of Gaussian 16 at Fri May 19 23:23:52 2023.
