 Gaussian 16, Revision A.03,
 Gaussian 16:  ES64L-G16RevA.03 25-Dec-2016

 -----------------------------
 # opt freq b3lyp/6-31g(2df,p)
 -----------------------------

 -------------------
 Title Card Required
 -------------------
 Symbolic Z-matrix:
 Charge =  0 Multiplicity = 1

 SCF Done:  E(RB3LYP) =  -540.592281181     A.U. after   21 cycles
 SCF Done:  E(RB3LYP) =  -540.653314305     A.U. after   16 cycles
 SCF Done:  E(RB3LYP) =  -540.741651921     A.U. after   15 cycles
 SCF Done:  E(RB3LYP) =  -540.816635919     A.U. after   14 cycles
 SCF Done:  E(RB3LYP) =  -540.873639116     A.U. after   13 cycles
 SCF Done:  E(RB3LYP) =  -540.888320357     A.U. after   13 cycles
 SCF Done:  E(RB3LYP) =  -540.893633117     A.U. after   12 cycles
 SCF Done:  E(RB3LYP) =  -540.897447472     A.U. after   12 cycles
 SCF Done:  E(RB3LYP) =  -540.900716364     A.U. after   13 cycles
 SCF Done:  E(RB3LYP) =  -540.902184500     A.U. after   11 cycles
 SCF Done:  E(RB3LYP) =  -540.902529708     A.U. after   11 cycles
 SCF Done:  E(RB3LYP) =  -540.902609407     A.U. after   10 cycles
 SCF Done:  E(RB3LYP) =  -540.902628331     A.U. after    9 cycles
 SCF Done:  E(RB3LYP) =  -540.902649593     A.U. after   10 cycles
 SCF Done:  E(RB3LYP) =  -540.902651086     A.U. after    8 cycles
 SCF Done:  E(RB3LYP) =  -540.902651236     A.U. after    6 cycles
 Optimization completed.
    -- Stationary point found.
 Normal termination of Gaussian 16 at Fri May 19 08:02:15 2023.

 ----------------------------------------------------------------------
 #N Geom=AllCheck Guess=TCheck SCRF=Check GenChk RB3LYP/6-31G(2df,p) Fr
 eq
 ----------------------------------------------------------------------

 Structure from the checkpoint file:  "COC1dCqCrCCC2dCCdCC2dC1.chk"
 -------------------
 Title Card Required
 -------------------
 Charge =  0 Multiplicity = 1

                         Standard orientation:
 ---------------------------------------------------------------------
 Center     Atomic      Atomic             Coordinates (Angstroms)
 Number     Number       Type             X           Y           Z
 ---------------------------------------------------------------------
      1          6           0       -2.547447   -2.025325   -0.865942
      2          8           0       -2.395492   -1.220304    0.294104
      3          6           0       -1.286678   -0.383785    0.277327
      4          6           0       -1.484184    0.955345    0.263617
      5          6           0       -2.869027    1.537884    0.213435
      6          6           0       -0.353823    1.957996    0.364667
      7          6           0        0.784232    1.766819   -0.655954
      8          6           0        1.700698    0.641417   -0.291722
      9          6           0        3.053701    0.587251   -0.372115
     10          6           0        3.519543   -0.732294    0.072661
     11          6           0        2.445712   -1.478121    0.421475
     12          6           0        1.244196   -0.663220    0.212413
     13          6           0       -0.025229   -1.090830    0.417697
     14          1           0       -3.419019   -2.661463   -0.696455
     15          1           0       -1.669351   -2.660934   -1.042488
     16          1           0       -2.715346   -1.408426   -1.759314
     17          1           0       -3.637390    0.766418    0.204563
     18          1           0       -2.987729    2.174101   -0.673748
     19          1           0       -3.036679    2.190573    1.080665
     20          1           0        0.073479    1.930643    1.377909
     21          1           0       -0.780228    2.958601    0.239782
     22          1           0        1.363185    2.693747   -0.732975
     23          1           0        0.338829    1.599266   -1.648266
     24          1           0        3.701450    1.387683   -0.708590
     25          1           0        4.558004   -1.034098    0.114377
     26          1           0        2.435995   -2.490945    0.800070
     27          1           0       -0.151419   -2.121542    0.746287
 ---------------------------------------------------------------------

 SCF Done:  E(RB3LYP) =  -540.902651236     A.U. after    1 cycles

 The electronic state is 1-A.
 Alpha  occ. eigenvalues --  -19.15206 -10.23140 -10.23077 -10.19986 -10.19723
 Alpha  occ. eigenvalues --  -10.18762 -10.18510 -10.18457 -10.17997 -10.17095
 Alpha  occ. eigenvalues --  -10.17053 -10.16841 -10.16421  -1.04637  -0.85978
 Alpha  occ. eigenvalues --   -0.81848  -0.77092  -0.74958  -0.70975  -0.68670
 Alpha  occ. eigenvalues --   -0.66259  -0.62083  -0.61494  -0.54227  -0.53435
 Alpha  occ. eigenvalues --   -0.50469  -0.48817  -0.47198  -0.46271  -0.44757
 Alpha  occ. eigenvalues --   -0.43376  -0.42563  -0.41652  -0.40027  -0.38496
 Alpha  occ. eigenvalues --   -0.38362  -0.37542  -0.36616  -0.36067  -0.34663
 Alpha  occ. eigenvalues --   -0.34159  -0.33108  -0.31426  -0.28652  -0.26462
 Alpha  occ. eigenvalues --   -0.21032  -0.19811
 Alpha virt. eigenvalues --   -0.06841   0.04006   0.08723   0.09826   0.10421
 Alpha virt. eigenvalues --    0.11288   0.11991   0.13348   0.13863   0.14477
 Alpha virt. eigenvalues --    0.15278   0.15358   0.16406   0.17035   0.17343

 Mulliken charges:
               1
     1  C   -0.248928
     2  O   -0.270458
     3  C    0.287799
     4  C    0.142334
     5  C   -0.478507
     6  C   -0.303612
     7  C   -0.321688
     8  C    0.202750
     9  C   -0.237251
    10  C   -0.121707
    11  C   -0.192929
    12  C    0.238083
    13  C   -0.251976
    14  H    0.130424
    15  H    0.116979
    16  H    0.113107
    17  H    0.139216
    18  H    0.124991
    19  H    0.129398
    20  H    0.119936
    21  H    0.098866
    22  H    0.102063
    23  H    0.103345
    24  H    0.089246
    25  H    0.093310
    26  H    0.090610
    27  H    0.104597
 Sum of Mulliken charges =  -0.00000

 Dipole moment (field-independent basis, Debye):
    X=             -1.0437    Y=              0.4120    Z=             -0.8841  Tot=              1.4286
 Quadrupole moment (field-independent basis, Debye-Ang):
   XX=            -76.2629   YY=            -70.5194   ZZ=            -78.4775
   XY=              0.7362   XZ=              2.4861   YZ=              0.5238

  Exact polarizability: 201.205 -10.529 139.709  -4.005  -6.446  78.230
 Approx polarizability: 330.390 -13.321 220.476 -16.164 -15.506 128.455

                      1                      2                      3
                      A                      A                      A
 Frequencies --     67.4391                83.2460               104.0229
 Red. masses --      2.8919                 3.1457                 2.9248
 Frc consts  --      0.0077                 0.0128                 0.0186
 IR Inten    --      1.5515                 1.6475                 0.9334

                      4                      5                      6
                      A                      A                      A
 Frequencies --    156.7815               164.8875               186.0302
 Red. masses --      2.1549                 1.1158                 1.5356
 Frc consts  --      0.0312                 0.0179                 0.0313
 IR Inten    --      0.4815                 0.1831                 1.0023

                      7                      8                      9
                      A                      A                      A
 Frequencies --    193.9662               265.4597               307.1605
 Red. masses --      1.9097                 3.1017                 3.2097
 Frc consts  --      0.0423                 0.1288                 0.1784
 IR Inten    --      1.5947                 1.7880                 4.4078

                     10                     11                     12
                      A                      A                      A
 Frequencies --    323.2439               353.3869               359.8767
 Red. masses --      3.1088                 3.8075                 3.0224
 Frc consts  --      0.1914                 0.2802                 0.2306
 IR Inten    --      0.8604                 2.4990                 2.6632

                     13                     14                     15
                      A                      A                      A
 Frequencies --    398.3389               409.8691               511.8421
 Red. masses --      3.0751                 4.7223                 2.9905
 Frc consts  --      0.2875                 0.4674                 0.4616
 IR Inten    --      1.7706                 2.1448                 3.0537

                     16                     17                     18
                      A                      A                      A
 Frequencies --    554.0182               589.5413               622.1613
 Red. masses --      2.8770                 2.9921                 3.8910
 Frc consts  --      0.5203                 0.6127                 0.8874
 IR Inten    --      0.2726                 3.1810                 7.1451

                     19                     20                     21
                      A                      A                      A
 Frequencies --    669.8427               714.6864               731.2512
 Red. masses --      2.7008                 2.2981                 4.0883
 Frc consts  --      0.7140                 0.6916                 1.2880
 IR Inten    --      6.0090                 9.2808                 2.9343

                     22                     23                     24
                      A                      A                      A
 Frequencies --    775.5219               808.8134               821.5374
 Red. masses --      2.1854                 4.0849                 5.4112
 Frc consts  --      0.7744                 1.5744                 2.1518
 IR Inten    --     17.8492                 6.8806                 5.7122

                     25                     26                     27
                      A                      A                      A
 Frequencies --    854.0912               883.3487               909.3758
 Red. masses --      1.3253                 2.2606                 1.4268
 Frc consts  --      0.5696                 1.0393                 0.6952
 IR Inten    --     11.4594                 2.6068                 3.6822

                     28                     29                     30
                      A                      A                      A
 Frequencies --    913.4574               954.7169               981.2087
 Red. masses --      1.7901                 1.5010                 1.7444
 Frc consts  --      0.8800                 0.8061                 0.9895
 IR Inten    --      9.2304                 7.0511                 4.6641

                     31                     32                     33
                      A                      A                      A
 Frequencies --   1005.3444              1035.5619              1038.1399
 Red. masses --      1.7658                 2.2485                 2.6184
 Frc consts  --      1.0515                 1.4207                 1.6626
 IR Inten    --      2.6060                13.6205                10.9877

                     34                     35                     36
                      A                      A                      A
 Frequencies --   1066.5126              1097.4490              1121.6093
 Red. masses --      1.9138                 1.5561                 3.6233
 Frc consts  --      1.2826                 1.1043                 2.6856
 IR Inten    --      6.6891                 5.6509                61.7637

                     37                     38                     39
                      A                      A                      A
 Frequencies --   1127.6444              1171.9878              1180.2464
 Red. masses --      1.8935                 2.1583                 1.3436
 Frc consts  --      1.4186                 1.7467                 1.1027
 IR Inten    --     25.4111                95.0368                 9.8867

                     40                     41                     42
                      A                      A                      A
 Frequencies --   1192.6377              1219.4794              1223.2712
 Red. masses --      1.4186                 1.6888                 1.5867
 Frc consts  --      1.1889                 1.4797                 1.3989
 IR Inten    --     15.0216                25.2656                34.0390

                     43                     44                     45
                      A                      A                      A
 Frequencies --   1247.0840              1272.8279              1312.5910
 Red. masses --      1.8083                 1.8194                 1.9034
 Frc consts  --      1.6570                 1.7367                 1.9321
 IR Inten    --      1.4272                17.8171                17.1301

                     46                     47                     48
                      A                      A                      A
 Frequencies --   1348.8173              1360.1550              1383.1008
 Red. masses --      1.5315                 2.0618                 1.4942
 Frc consts  --      1.6416                 2.2473                 1.6840
 IR Inten    --     10.1818                26.3486                10.5444

                     49                     50                     51
                      A                      A                      A
 Frequencies --   1397.3623              1416.3339              1467.9863
 Red. masses --      1.2884                 2.0645                 1.1141
 Frc consts  --      1.4822                 2.4400                 1.4146
 IR Inten    --      0.6286                 9.8334                 4.8330

                     52                     53                     54
                      A                      A                      A
 Frequencies --   1474.2157              1475.7977              1483.2080
 Red. masses --      1.0901                 1.0891                 1.1289
 Frc consts  --      1.3959                 1.3975                 1.4633
 IR Inten    --      2.1912                 3.9061                 0.1732

                     55                     56                     57
                      A                      A                      A
 Frequencies --   1485.9496              1492.2848              1506.6632
 Red. masses --      1.0527                 1.0488                 1.0537
 Frc consts  --      1.3695                 1.3761                 1.4093
 IR Inten    --      6.0303                 4.9926                 8.9024

                     58                     59                     60
                      A                      A                      A
 Frequencies --   1549.6965              1635.1980              1638.7499
 Red. masses --      6.4718                 6.6183                 7.1682
 Frc consts  --      9.1573                10.4265                11.3419
 IR Inten    --     86.6823                15.0295               113.2934

                     61                     62                     63
                      A                      A                      A
 Frequencies --   1692.6919              2988.0152              2996.8453
 Red. masses --      7.1756                 1.0694                 1.0341
 Frc consts  --     12.1133                 5.6252                 5.4719
 IR Inten    --      5.3230                18.4381                53.0006

                     64                     65                     66
                      A                      A                      A
 Frequencies --   3004.2589              3012.6612              3051.8596
 Red. masses --      1.0639                 1.0438                 1.0989
 Frc consts  --      5.6576                 5.5815                 6.0301
 IR Inten    --     23.8999                32.0781                13.4059

                     67                     68                     69
                      A                      A                      A
 Frequencies --   3053.2950              3057.7606              3069.1067
 Red. masses --      1.1029                 1.0948                 1.0916
 Frc consts  --      6.0580                 6.0309                 6.0580
 IR Inten    --     37.8437                18.0827                44.2853

                     70                     71                     72
                      A                      A                      A
 Frequencies --   3122.7026              3139.0059              3159.2786
 Red. masses --      1.0994                 1.0867                 1.0946
 Frc consts  --      6.3161                 6.3087                 6.4367
 IR Inten    --     33.2190                10.7783                 9.5977

                     73                     74                     75
                      A                      A                      A
 Frequencies --   3200.9789              3213.8256              3235.0401
 Red. masses --      1.0901                 1.0898                 1.1046
 Frc consts  --      6.5807                 6.6321                 6.8113
 IR Inten    --      8.7992                11.2746                17.9885

 - Thermochemistry -
 -------------------
 Temperature   298.150 Kelvin.  Pressure   1.00000 Atm.
 Atom     1 has atomic number  6 and mass  12.00000

 Molecular mass:   174.10447 amu.
 Principal axes and moments of inertia in atomic units:
                           1         2         3
     Eigenvalues --  1292.033173022.196874026.94949
           X            0.99997  -0.00406   0.00654
           Y            0.00401   0.99996   0.00769
           Z           -0.00657  -0.00766   0.99995
 This molecule is an asymmetric top.
 Rotational symmetry number  1.
 Warning -- assumption of classical behavior for rotation
           may cause significant error
 Rotational temperatures (Kelvin)      0.06704     0.02866     0.02151
 Rotational constants (GHZ):           1.39682     0.59716     0.44817
 Zero-point vibrational energy     598697.2 (Joules/Mol)
                                  143.09207 (Kcal/Mol)
 Warning -- explicit consideration of  17 degrees of freedom as
           vibrations may cause significant error
 Vibrational temperatures:     97.03   119.77   149.67   225.57   237.24
          (Kelvin)            267.66   279.07   381.94   441.94   465.08
                              508.44   517.78   573.12   589.71   736.43
                              797.11   848.22   895.15   963.75  1028.27
                             1052.11  1115.80  1163.70  1182.01  1228.85
                             1270.94  1308.39  1314.26  1373.62  1411.74
                             1446.47  1489.94  1493.65  1534.47  1578.98
                             1613.75  1622.43  1686.23  1698.11  1715.94
                             1754.56  1760.01  1794.28  1831.32  1888.53
                             1940.65  1956.96  1989.97  2010.49  2037.79
                             2112.10  2121.07  2123.34  2134.01  2137.95
                             2147.06  2167.75  2229.67  2352.69  2357.80
                             2435.41  4299.09  4311.79  4322.46  4334.55
                             4390.95  4393.01  4399.44  4415.76  4492.87
                             4516.33  4545.50  4605.49  4623.98  4654.50

 Zero-point correction=                           0.228032 (Hartree/Particle)
 Thermal correction to Energy=                    0.240149
 Thermal correction to Enthalpy=                  0.241093
 Thermal correction to Gibbs Free Energy=         0.190110
 Sum of electronic and zero-point Energies=           -540.674620
 Sum of electronic and thermal Energies=              -540.662502
 Sum of electronic and thermal Enthalpies=            -540.661558
 Sum of electronic and thermal Free Energies=         -540.712541

                     E (Thermal)             CV                S
                      KCal/Mol        Cal/Mol-Kelvin    Cal/Mol-Kelvin
 Total                  150.696             47.071            107.303
 Electronic               0.000              0.000              0.000
 Translational            0.889              2.981             41.371
 Rotational               0.889              2.981             31.131
 Vibrational            148.918             41.110             34.801
 Vibration     1          0.598              1.970              4.227
 Vibration     2          0.600              1.961              3.813
 Vibration     3          0.605              1.946              3.378
 Vibration     4          0.620              1.895              2.588
 Vibration     5          0.623              1.886              2.493
 Vibration     6          0.632              1.859              2.267
 Vibration     7          0.635              1.848              2.190
 Vibration     8          0.671              1.736              1.626
 Vibration     9          0.697              1.660              1.378
 Vibration    10          0.708              1.629              1.294
 Vibration    11          0.730              1.568              1.151
 Vibration    12          0.734              1.555              1.123
 Vibration    13          0.765              1.474              0.969
 Vibration    14          0.774              1.449              0.927
 Vibration    15          0.867              1.224              0.629
 Vibration    16          0.909              1.131              0.536
 Vibration    17          0.947              1.054              0.468

 Optimization completed.
    -- Stationary point found.
 Normal termination of Gaussian 16 at Fri May 19 09:24:28 2023.
