 Gaussian 16, Revision A.03,
 Gaussian 16:  ES64L-G16RevA.03 25-Dec-2016

 -----------------------------
 # opt freq b3lyp/6-31g(2df,p)
 -----------------------------

 -------------------
 Title Card Required
 -------------------
 Symbolic Z-matrix:
 Charge =  0 Multiplicity = 1

 SCF Done:  E(RB3LYP) =  -1657.96829529     A.U. after   20 cycles
 SCF Done:  E(RB3LYP) =  -1657.98824243     A.U. after   13 cycles
 SCF Done:  E(RB3LYP) =  -1657.98670918     A.U. after   14 cycles
 SCF Done:  E(RB3LYP) =  -1657.99581288     A.U. after   15 cycles
 SCF Done:  E(RB3LYP) =  -1658.00235287     A.U. after   14 cycles
 SCF Done:  E(RB3LYP) =  -1658.01037658     A.U. after   14 cycles
 SCF Done:  E(RB3LYP) =  -1658.01153909     A.U. after   16 cycles
 SCF Done:  E(RB3LYP) =  -1658.01626132     A.U. after   15 cycles
 SCF Done:  E(RB3LYP) =  -1658.01718071     A.U. after   14 cycles
 SCF Done:  E(RB3LYP) =  -1658.01991331     A.U. after   15 cycles
 SCF Done:  E(RB3LYP) =  -1658.04175186     A.U. after   11 cycles
 SCF Done:  E(RB3LYP) =  -1658.04178592     A.U. after   10 cycles
 SCF Done:  E(RB3LYP) =  -1658.04181106     A.U. after   10 cycles
 SCF Done:  E(RB3LYP) =  -1658.04182381     A.U. after   10 cycles
 SCF Done:  E(RB3LYP) =  -1658.04183108     A.U. after    9 cycles
 SCF Done:  E(RB3LYP) =  -1658.04183188     A.U. after    9 cycles
 SCF Done:  E(RB3LYP) =  -1658.04183226     A.U. after    8 cycles
 SCF Done:  E(RB3LYP) =  -1658.04183237     A.U. after    7 cycles
 SCF Done:  E(RB3LYP) =  -1658.04183239     A.U. after    6 cycles
 Optimization completed.
    -- Stationary point found.
 Normal termination of Gaussian 16 at Fri May 19 05:43:11 2023.

 ----------------------------------------------------------------------
 #N Geom=AllCheck Guess=TCheck SCRF=Check GenChk RB3LYP/6-31G(2df,p) Fr
 eq
 ----------------------------------------------------------------------

 Structure from the checkpoint file:  "COC1dCCdCCdCCdC1SSCS.chk"
 -------------------
 Title Card Required
 -------------------
 Charge =  0 Multiplicity = 1

                         Standard orientation:
 ---------------------------------------------------------------------
 Center     Atomic      Atomic             Coordinates (Angstroms)
 Number     Number       Type             X           Y           Z
 ---------------------------------------------------------------------
      1          6           0       -1.029156    3.061295   -1.010076
      2          8           0       -0.554943    1.782891   -0.630722
      3          6           0       -1.436930    0.885106   -0.122133
      4          6           0       -2.748162    1.116164    0.060666
      5          6           0       -3.739399    0.178787    0.588876
      6          6           0       -3.993745   -1.074319    0.179369
      7          6           0       -3.323544   -1.819125   -0.887222
      8          6           0       -2.007487   -2.012319   -1.054877
      9          6           0       -0.949054   -1.582818   -0.133830
     10          6           0       -0.709921   -0.340935    0.307287
     11         16           0        0.531777   -0.121832    1.594863
     12         16           0        2.236188    0.615462    0.660136
     13          6           0        3.069466   -0.923121    0.102571
     14         16           0        4.585955   -0.506418   -0.814924
     15          1           0       -0.164772    3.599757   -1.400908
     16          1           0       -1.439818    3.605320   -0.150143
     17          1           0       -1.799604    2.987118   -1.787855
     18          1           0       -3.133730    2.106939   -0.161894
     19          1           0       -4.415435    0.598959    1.333509
     20          1           0       -4.849920   -1.580967    0.622569
     21          1           0       -3.992414   -2.327182   -1.581981
     22          1           0       -1.682404   -2.662695   -1.865688
     23          1           0       -0.294270   -2.376228    0.225686
     24          1           0        2.390722   -1.512001   -0.513858
     25          1           0        3.389722   -1.513667    0.962077
     26          1           0        3.976343    0.083820   -1.860725
 ---------------------------------------------------------------------

 SCF Done:  E(RB3LYP) =  -1658.04183239     A.U. after    1 cycles

 The electronic state is 1-A.
 Alpha  occ. eigenvalues --  -88.89210 -88.88821 -88.88291 -19.17526 -10.25035
 Alpha  occ. eigenvalues --  -10.24553 -10.23892 -10.22403 -10.20914 -10.19863
 Alpha  occ. eigenvalues --  -10.19717 -10.19432 -10.18828 -10.17997  -7.95324
 Alpha  occ. eigenvalues --   -7.95056  -7.94890  -5.91834  -5.91585  -5.91462
 Alpha  occ. eigenvalues --   -5.91338  -5.91190  -5.90998  -5.90846  -5.90519
 Alpha  occ. eigenvalues --   -5.90405  -1.07086  -0.84968  -0.82120  -0.79883
 Alpha  occ. eigenvalues --   -0.78547  -0.75315  -0.72235  -0.70136  -0.67072
 Alpha  occ. eigenvalues --   -0.63985  -0.60058  -0.57822  -0.56009  -0.52369
 Alpha  occ. eigenvalues --   -0.49036  -0.48167  -0.47047  -0.46819  -0.46263
 Alpha  occ. eigenvalues --   -0.44823  -0.43754  -0.42812  -0.40865  -0.40018
 Alpha  occ. eigenvalues --   -0.38281  -0.36909  -0.35736  -0.34746  -0.33893
 Alpha  occ. eigenvalues --   -0.33787  -0.33305  -0.30812  -0.27603  -0.25840
 Alpha  occ. eigenvalues --   -0.25404  -0.23734  -0.23408  -0.20692
 Alpha virt. eigenvalues --   -0.05649  -0.01801   0.01024   0.01445   0.02427
 Alpha virt. eigenvalues --    0.05677   0.05811   0.06489   0.08774   0.09991
 Alpha virt. eigenvalues --    0.10439   0.11622   0.12927   0.13471   0.13969

 Mulliken charges:
               1
     1  C   -0.244324
     2  O   -0.236358
     3  C    0.292591
     4  C   -0.265928
     5  C   -0.101011
     6  C   -0.105132
     7  C   -0.076842
     8  C   -0.130635
     9  C   -0.130491
    10  C    0.135269
    11  S   -0.148842
    12  S   -0.050117
    13  C   -0.201722
    14  S   -0.230884
    15  H    0.139862
    16  H    0.129259
    17  H    0.126485
    18  H    0.093414
    19  H    0.095896
    20  H    0.096175
    21  H    0.101273
    22  H    0.100818
    23  H    0.119241
    24  H    0.157192
    25  H    0.164319
    26  H    0.170492
 Sum of Mulliken charges =  -0.00000

 Dipole moment (field-independent basis, Debye):
    X=             -2.5734    Y=             -0.2524    Z=             -1.9593  Tot=              3.2442
 Quadrupole moment (field-independent basis, Debye-Ang):
   XX=           -105.6726   YY=            -93.9837   ZZ=           -103.6640
   XY=             -2.8780   XZ=             -1.2544   YZ=             -2.1499

  Exact polarizability: 244.491  13.176 160.020 -12.055   9.910 124.927
 Approx polarizability: 359.142  26.661 270.046 -24.844  23.000 214.009

                      1                      2                      3
                      A                      A                      A
 Frequencies --     18.7513                29.2964                63.2385
 Red. masses --      6.6410                 8.7530                 4.1534
 Frc consts  --      0.0014                 0.0044                 0.0098
 IR Inten    --      0.3272                 0.0261                 0.9890

                      4                      5                      6
                      A                      A                      A
 Frequencies --     73.2134                91.7162               117.8785
 Red. masses --      2.3742                 4.0939                 6.8792
 Frc consts  --      0.0075                 0.0203                 0.0563
 IR Inten    --      2.3150                 2.4647                 0.2132

                      7                      8                      9
                      A                      A                      A
 Frequencies --    146.5103               156.7873               200.0760
 Red. masses --      9.2167                 4.3847                 2.7748
 Frc consts  --      0.1166                 0.0635                 0.0654
 IR Inten    --      1.5986                 0.6810                 0.2536

                     10                     11                     12
                      A                      A                      A
 Frequencies --    210.1739               226.8169               245.2541
 Red. masses --      3.9867                 2.8284                 2.8259
 Frc consts  --      0.1038                 0.0857                 0.1001
 IR Inten    --      1.1757                 3.8515                 6.7034

                     13                     14                     15
                      A                      A                      A
 Frequencies --    259.8658               267.1800               284.9951
 Red. masses --      1.9160                 1.5630                 3.5282
 Frc consts  --      0.0762                 0.0657                 0.1688
 IR Inten    --     13.8311                 0.9534                 0.2495

                     16                     17                     18
                      A                      A                      A
 Frequencies --    302.2405               359.5128               403.8731
 Red. masses --      3.3509                 2.4478                 5.0469
 Frc consts  --      0.1803                 0.1864                 0.4850
 IR Inten    --      1.7239                 5.9800                 1.4317

                     19                     20                     21
                      A                      A                      A
 Frequencies --    444.9022               486.7522               574.5068
 Red. masses --      6.0293                22.4331                 4.0148
 Frc consts  --      0.7032                 3.1315                 0.7807
 IR Inten    --      3.0861                 1.7863                 1.8200

                     22                     23                     24
                      A                      A                      A
 Frequencies --    585.6697               636.4480               658.7150
 Red. masses --      4.7944                 4.5725                 2.6793
 Frc consts  --      0.9689                 1.0913                 0.6850
 IR Inten    --      9.3154                13.6357                21.9574

                     25                     26                     27
                      A                      A                      A
 Frequencies --    684.3736               716.4043               721.5379
 Red. masses --      3.5113                 2.7868                 5.8062
 Frc consts  --      0.9690                 0.8427                 1.7810
 IR Inten    --      3.2590                 3.7010                14.4775

                     28                     29                     30
                      A                      A                      A
 Frequencies --    729.5335               777.5195               807.5178
 Red. masses --      1.8965                 1.3749                 2.2845
 Frc consts  --      0.5947                 0.4897                 0.8777
 IR Inten    --     36.0615                 2.3667                14.5706

                     31                     32                     33
                      A                      A                      A
 Frequencies --    816.5651               873.4019               910.8321
 Red. masses --      1.9754                 2.2279                 2.3466
 Frc consts  --      0.7760                 1.0013                 1.1470
 IR Inten    --     24.8763                 7.2466                 1.6824

                     34                     35                     36
                      A                      A                      A
 Frequencies --    934.7371               967.9952               974.0387
 Red. masses --      2.4581                 1.2859                 2.7159
 Frc consts  --      1.2654                 0.7099                 1.5182
 IR Inten    --      3.6148                 6.0426                 7.2896

                     37                     38                     39
                      A                      A                      A
 Frequencies --    991.0429               996.4352              1016.7340
 Red. masses --      1.3552                 1.4741                 2.4389
 Frc consts  --      0.7842                 0.8623                 1.4855
 IR Inten    --      0.2463                 2.8597                 1.1496

                     40                     41                     42
                      A                      A                      A
 Frequencies --   1046.6834              1091.5490              1142.7741
 Red. masses --      5.0031                 1.9820                 1.0514
 Frc consts  --      3.2294                 1.3914                 0.8090
 IR Inten    --     40.2449                 3.9819                 6.2779

                     43                     44                     45
                      A                      A                      A
 Frequencies --   1176.0324              1205.1012              1215.9940
 Red. masses --      1.2829                 1.6259                 1.1539
 Frc consts  --      1.0454                 1.3912                 1.0053
 IR Inten    --      1.4494                49.9655                31.2225

                     46                     47                     48
                      A                      A                      A
 Frequencies --   1237.2872              1243.2379              1271.8805
 Red. masses --      1.5513                 1.0981                 1.6682
 Frc consts  --      1.3992                 1.0000                 1.5900
 IR Inten    --     80.3581                12.5678               102.2162

                     49                     50                     51
                      A                      A                      A
 Frequencies --   1319.6421              1399.3338              1410.2513
 Red. masses --      1.2801                 1.6781                 1.3853
 Frc consts  --      1.3135                 1.9361                 1.6232
 IR Inten    --      7.6734                22.6083                 1.6528

                     52                     53                     54
                      A                      A                      A
 Frequencies --   1447.6892              1455.1507              1476.8347
 Red. masses --      1.0780                 1.7221                 1.1924
 Frc consts  --      1.3312                 2.1484                 1.5322
 IR Inten    --      2.5580                 2.7945                 0.6778

                     55                     56                     57
                      A                      A                      A
 Frequencies --   1488.2912              1505.5956              1672.5197
 Red. masses --      1.0471                 1.0507                 7.6640
 Frc consts  --      1.3665                 1.4033                12.6313
 IR Inten    --      5.4526                16.2434                92.3156

                     58                     59                     60
                      A                      A                      A
 Frequencies --   1686.5531              1691.2525              1705.7304
 Red. masses --      7.7266                 6.1785                 9.3731
 Frc consts  --     12.9491                10.4123                16.0677
 IR Inten    --      7.0973                 9.9837                28.0664

                     61                     62                     63
                      A                      A                      A
 Frequencies --   2674.6477              3007.9385              3069.4608
 Red. masses --      1.0384                 1.0340                 1.1046
 Frc consts  --      4.3769                 5.5120                 6.1319
 IR Inten    --      1.9169                43.0258                28.1306

                     64                     65                     66
                      A                      A                      A
 Frequencies --   3080.4266              3113.8877              3118.1492
 Red. masses --      1.0542                 1.0809                 1.0823
 Frc consts  --      5.8938                 6.1749                 6.1998
 IR Inten    --      5.0936                 3.7379                 5.5852

                     67                     68                     69
                      A                      A                      A
 Frequencies --   3127.1330              3138.1774              3139.2183
 Red. masses --      1.0868                 1.0915                 1.0989
 Frc consts  --      6.2615                 6.3330                 6.3803
 IR Inten    --     11.7514                44.2318                12.0951

                     70                     71                     72
                      A                      A                      A
 Frequencies --   3144.6383              3148.0890              3161.9213
 Red. masses --      1.0935                 1.1123                 1.0861
 Frc consts  --      6.3708                 6.4946                 6.3974
 IR Inten    --     35.7181                 1.3674                12.6263

 - Thermochemistry -
 -------------------
 Temperature   298.150 Kelvin.  Pressure   1.00000 Atm.
 Atom     1 has atomic number  6 and mass  12.00000

 Molecular mass:   244.00503 amu.
 Principal axes and moments of inertia in atomic units:
                           1         2         3
     Eigenvalues --  2143.461116916.747087759.51980
           X            0.99999  -0.00503  -0.00021
           Y            0.00502   0.99983  -0.01760
           Z            0.00030   0.01760   0.99985
 This molecule is an asymmetric top.
 Rotational symmetry number  1.
 Warning -- assumption of classical behavior for rotation
           may cause significant error
 Rotational temperatures (Kelvin)      0.04041     0.01252     0.01116
 Rotational constants (GHZ):           0.84198     0.26092     0.23258
 Zero-point vibrational energy     511858.8 (Joules/Mol)
                                  122.33720 (Kcal/Mol)
 Warning -- explicit consideration of  22 degrees of freedom as
           vibrations may cause significant error
 Vibrational temperatures:     26.98    42.15    90.99   105.34   131.96
          (Kelvin)            169.60   210.80   225.58   287.86   302.39
                              326.34   352.87   373.89   384.41   410.04
                              434.86   517.26   581.08   640.12   700.33
                              826.59   842.65   915.71   947.74   984.66
                             1030.75  1038.13  1049.64  1118.68  1161.84
                             1174.86  1256.63  1310.48  1344.88  1392.73
                             1401.42  1425.89  1433.65  1462.85  1505.94
                             1570.50  1644.20  1692.05  1733.87  1749.54
                             1780.18  1788.74  1829.95  1898.67  2013.33
                             2029.04  2082.90  2093.64  2124.84  2141.32
                             2166.22  2406.38  2426.57  2433.34  2454.17
                             3848.22  4327.75  4416.27  4432.05  4480.19
                             4486.32  4499.25  4515.14  4516.63  4524.43
                             4529.40  4549.30

 Zero-point correction=                           0.194957 (Hartree/Particle)
 Thermal correction to Energy=                    0.210829
 Thermal correction to Enthalpy=                  0.211773
 Thermal correction to Gibbs Free Energy=         0.149442
 Sum of electronic and zero-point Energies=          -1657.846876
 Sum of electronic and thermal Energies=             -1657.831003
 Sum of electronic and thermal Enthalpies=           -1657.830059
 Sum of electronic and thermal Free Energies=        -1657.892390

                     E (Thermal)             CV                S
                      KCal/Mol        Cal/Mol-Kelvin    Cal/Mol-Kelvin
 Total                  132.297             56.839            131.187
 Electronic               0.000              0.000              0.000
 Translational            0.889              2.981             42.377
 Rotational               0.889              2.981             33.109
 Vibrational            130.520             50.878             55.701
 Vibration     1          0.593              1.986              6.762
 Vibration     2          0.593              1.984              5.877
 Vibration     3          0.597              1.972              4.353
 Vibration     4          0.599              1.967              4.065
 Vibration     5          0.602              1.955              3.623
 Vibration     6          0.608              1.934              3.135
 Vibration     7          0.617              1.906              2.717
 Vibration     8          0.620              1.895              2.588
 Vibration     9          0.638              1.840              2.132
 Vibration    10          0.642              1.825              2.042
 Vibration    11          0.650              1.800              1.904
 Vibration    12          0.660              1.771              1.764
 Vibration    13          0.668              1.746              1.663
 Vibration    14          0.672              1.733              1.614
 Vibration    15          0.683              1.702              1.504
 Vibration    16          0.694              1.669              1.404
 Vibration    17          0.734              1.556              1.124
 Vibration    18          0.769              1.462              0.949
 Vibration    19          0.804              1.372              0.811
 Vibration    20          0.843              1.279              0.692
 Vibration    21          0.931              1.086              0.496
 Vibration    22          0.943              1.062              0.475

 Optimization completed.
    -- Stationary point found.
 Normal termination of Gaussian 16 at Fri May 19 07:12:05 2023.
