 Gaussian 16, Revision A.03,
 Gaussian 16:  ES64L-G16RevA.03 25-Dec-2016

 -----------------------------
 # opt freq b3lyp/6-31g(2df,p)
 -----------------------------

 -------------------
 Title Card Required
 -------------------
 Symbolic Z-matrix:
 Charge =  0 Multiplicity = 1

 SCF Done:  E(RB3LYP) =  -1423.31942744     A.U. after   18 cycles
 SCF Done:  E(RB3LYP) =  -1423.36572067     A.U. after   13 cycles
 SCF Done:  E(RB3LYP) =  -1423.40132780     A.U. after   15 cycles
 SCF Done:  E(RB3LYP) =  -1423.41090394     A.U. after   13 cycles
 SCF Done:  E(RB3LYP) =  -1423.41604311     A.U. after   13 cycles
 SCF Done:  E(RB3LYP) =  -1423.42076687     A.U. after   13 cycles
 SCF Done:  E(RB3LYP) =  -1423.42328547     A.U. after   13 cycles
 SCF Done:  E(RB3LYP) =  -1423.42390340     A.U. after   12 cycles
 SCF Done:  E(RB3LYP) =  -1423.42407652     A.U. after   11 cycles
 SCF Done:  E(RB3LYP) =  -1423.42427684     A.U. after   12 cycles
 SCF Done:  E(RB3LYP) =  -1423.42794243     A.U. after   12 cycles
 SCF Done:  E(RB3LYP) =  -1423.42801275     A.U. after   11 cycles
 SCF Done:  E(RB3LYP) =  -1423.42805767     A.U. after   10 cycles
 SCF Done:  E(RB3LYP) =  -1423.42809311     A.U. after   11 cycles
 SCF Done:  E(RB3LYP) =  -1423.42810211     A.U. after    9 cycles
 SCF Done:  E(RB3LYP) =  -1423.42810556     A.U. after    8 cycles
 SCF Done:  E(RB3LYP) =  -1423.42810655     A.U. after    8 cycles
 SCF Done:  E(RB3LYP) =  -1423.42810691     A.U. after    8 cycles
 SCF Done:  E(RB3LYP) =  -1423.42810708     A.U. after    7 cycles
 Optimization completed.
    -- Stationary point found.
 Normal termination of Gaussian 16 at Fri May 19 13:07:38 2023.

 ----------------------------------------------------------------------
 #N Geom=AllCheck Guess=TCheck SCRF=Check GenChk RB3LYP/6-31G(2df,p) Fr
 eq
 ----------------------------------------------------------------------

 Structure from the checkpoint file:  "COC1dCCdCC2dCqSCdNC2rSC1dNN.chk"
 -------------------
 Title Card Required
 -------------------
 Charge =  0 Multiplicity = 1

                         Standard orientation:
 ---------------------------------------------------------------------
 Center     Atomic      Atomic             Coordinates (Angstroms)
 Number     Number       Type             X           Y           Z
 ---------------------------------------------------------------------
      1          6           0        4.449976    0.002489   -0.596494
      2          8           0        3.767120   -0.930616    0.237796
      3          6           0        2.413636   -0.876099    0.331461
      4          6           0        1.712280   -2.028366    0.477090
      5          6           0        0.300898   -1.788117    0.613963
      6          6           0       -0.805994   -2.207025   -0.045433
      7          6           0       -1.783537   -1.156779   -0.249138
      8          6           0       -1.318085    0.116690   -0.444439
      9         16           0       -2.428959    1.493181   -0.317773
     10          6           0       -3.707433    0.719664    0.674966
     11          7           0       -3.984705   -0.510555    0.705976
     12          6           0       -3.279498   -1.388731   -0.239034
     13         16           0        0.315405    0.603867   -1.037826
     14          6           0        1.707823    0.430675    0.210228
     15          7           0        2.171692    1.460165    0.822048
     16          7           0        1.675891    2.687284    0.633616
     17          1           0        5.483932   -0.344905   -0.637583
     18          1           0        4.417920    1.013248   -0.183242
     19          1           0        4.031559    0.008207   -1.610144
     20          1           0        2.182783   -2.993932    0.337251
     21          1           0        0.111929   -0.892729    1.196183
     22          1           0       -0.895208   -3.158905   -0.563347
     23          1           0       -4.247981    1.429308    1.299364
     24          1           0       -3.702659   -1.198396   -1.238162
     25          1           0       -3.500149   -2.424577    0.025093
     26          1           0        1.872190    3.303101    1.407209
     27          1           0        0.745048    2.747065    0.224094
 ---------------------------------------------------------------------

 SCF Done:  E(RB3LYP) =  -1423.42810708     A.U. after    1 cycles

 The electronic state is 1-A.
 Alpha  occ. eigenvalues --  -88.90195 -88.88924 -19.16854 -14.38552 -14.37982
 Alpha  occ. eigenvalues --  -14.33789 -10.25457 -10.25130 -10.24804 -10.24687
 Alpha  occ. eigenvalues --  -10.23206 -10.22271 -10.21103 -10.19435 -10.19038
 Alpha  occ. eigenvalues --  -10.18225  -7.96445  -7.95001  -5.92869  -5.92509
 Alpha  occ. eigenvalues --   -5.92123  -5.91513  -5.91137  -5.90555  -1.06220
 Alpha  occ. eigenvalues --   -1.01979  -0.94167  -0.85840  -0.83217  -0.80622
 Alpha  occ. eigenvalues --   -0.78223  -0.74053  -0.73075  -0.69611  -0.64642
 Alpha  occ. eigenvalues --   -0.64225  -0.59961  -0.57611  -0.56564  -0.53219
 Alpha  occ. eigenvalues --   -0.52480  -0.49977  -0.49676  -0.47774  -0.47025
 Alpha  occ. eigenvalues --   -0.46180  -0.44871  -0.44038  -0.42016  -0.41211
 Alpha  occ. eigenvalues --   -0.40849  -0.39739  -0.39180  -0.36104  -0.35266
 Alpha  occ. eigenvalues --   -0.34748  -0.34040  -0.32721  -0.31552  -0.28790
 Alpha  occ. eigenvalues --   -0.26860  -0.26151  -0.25276  -0.23927  -0.23329
 Alpha  occ. eigenvalues --   -0.19723
 Alpha virt. eigenvalues --   -0.06665  -0.02736  -0.01610   0.00553   0.03071
 Alpha virt. eigenvalues --    0.03492   0.05435   0.07878   0.09127   0.10129
 Alpha virt. eigenvalues --    0.11015   0.12436   0.12963   0.13882   0.14192

 Mulliken charges:
               1
     1  C   -0.252061
     2  O   -0.256107
     3  C    0.386310
     4  C   -0.259631
     5  C   -0.061024
     6  C   -0.223574
     7  C    0.209928
     8  C    0.061719
     9  S   -0.113370
    10  C   -0.037590
    11  N   -0.142354
    12  C   -0.261655
    13  S   -0.217832
    14  C    0.053287
    15  N   -0.171141
    16  N   -0.396808
    17  H    0.134145
    18  H    0.142758
    19  H    0.126292
    20  H    0.109496
    21  H    0.126727
    22  H    0.103518
    23  H    0.141681
    24  H    0.131143
    25  H    0.122201
    26  H    0.271741
    27  H    0.272203
 Sum of Mulliken charges =  -0.00000

 Dipole moment (field-independent basis, Debye):
    X=              0.6193    Y=              1.3766    Z=             -0.0738  Tot=              1.5113
 Quadrupole moment (field-independent basis, Debye-Ang):
   XX=           -105.8518   YY=            -96.1537   ZZ=           -108.4123
   XY=              1.5704   XZ=             -1.1417   YZ=              7.9487

  Exact polarizability: 246.444  12.881 193.577   1.855   4.912 104.850
 Approx polarizability: 391.322  47.846 386.129  14.922   2.703 194.269

                      1                      2                      3
                      A                      A                      A
 Frequencies --     43.0935                54.7257                69.3880
 Red. masses --      3.8343                 5.3671                 2.9488
 Frc consts  --      0.0042                 0.0095                 0.0084
 IR Inten    --      1.0520                 0.1740                 4.2172

                      4                      5                      6
                      A                      A                      A
 Frequencies --    100.9663               109.7039               144.5205
 Red. masses --      6.8502                 3.3972                 3.7423
 Frc consts  --      0.0411                 0.0241                 0.0461
 IR Inten    --      0.1940                 0.3430                 3.1084

                      7                      8                      9
                      A                      A                      A
 Frequencies --    178.9177               194.2629               214.1160
 Red. masses --      1.8353                 2.4150                 4.1718
 Frc consts  --      0.0346                 0.0537                 0.1127
 IR Inten    --      2.9216                 1.4158                 7.0285

                     10                     11                     12
                      A                      A                      A
 Frequencies --    226.4617               252.4176               273.8544
 Red. masses --      5.4829                 6.8432                 4.1407
 Frc consts  --      0.1657                 0.2569                 0.1830
 IR Inten    --      0.8557                 1.0219                 8.8133

                     13                     14                     15
                      A                      A                      A
 Frequencies --    304.0877               343.2636               349.8076
 Red. masses --      3.7851                 4.7405                 7.5353
 Frc consts  --      0.2062                 0.3291                 0.5433
 IR Inten    --      4.3443                 3.9010                 3.7639

                     16                     17                     18
                      A                      A                      A
 Frequencies --    375.0775               397.8061               440.6402
 Red. masses --      4.4499                 4.4501                 4.1599
 Frc consts  --      0.3688                 0.4149                 0.4759
 IR Inten    --     14.4710                20.5452                 3.9108

                     19                     20                     21
                      A                      A                      A
 Frequencies --    459.9625               476.1624               508.8645
 Red. masses --      3.1192                 2.6833                 4.0882
 Frc consts  --      0.3888                 0.3584                 0.6237
 IR Inten    --     24.1422                94.1973                41.0139

                     22                     23                     24
                      A                      A                      A
 Frequencies --    516.5399               529.9957               567.2872
 Red. masses --      3.2418                 3.3495                 5.3968
 Frc consts  --      0.5096                 0.5543                 1.0233
 IR Inten    --     49.8468                75.5984                 2.3704

                     25                     26                     27
                      A                      A                      A
 Frequencies --    587.9601               617.6126               627.1170
 Red. masses --      2.4608                 3.5524                 2.9343
 Frc consts  --      0.5012                 0.7984                 0.6799
 IR Inten    --    115.7229                15.4917                35.7490

                     28                     29                     30
                      A                      A                      A
 Frequencies --    632.1657               664.0370               693.5898
 Red. masses --      7.4028                 3.2626                 4.2940
 Frc consts  --      1.7431                 0.8476                 1.2171
 IR Inten    --     14.6782                23.3198                12.9286

                     31                     32                     33
                      A                      A                      A
 Frequencies --    759.1520               818.5870               852.2966
 Red. masses --      5.8722                 1.7713                 1.8245
 Frc consts  --      1.9939                 0.6993                 0.7808
 IR Inten    --     92.0534                33.0520                39.5728

                     34                     35                     36
                      A                      A                      A
 Frequencies --    863.4836               882.9982               919.7520
 Red. masses --      2.0906                 2.3801                 6.0535
 Frc consts  --      0.9184                 1.0933                 3.0172
 IR Inten    --     38.5016                12.5823                25.4361

                     37                     38                     39
                      A                      A                      A
 Frequencies --    948.8428               972.2856              1021.1653
 Red. masses --      4.7022                 3.3604                 2.2269
 Frc consts  --      2.4943                 1.8716                 1.3682
 IR Inten    --     13.9044                 6.4118                 5.4915

                     40                     41                     42
                      A                      A                      A
 Frequencies --   1037.5385              1061.0654              1138.5473
 Red. masses --      2.9003                 1.4965                 1.8938
 Frc consts  --      1.8395                 0.9927                 1.4464
 IR Inten    --     78.6499                 9.7005                22.7085

                     43                     44                     45
                      A                      A                      A
 Frequencies --   1170.1031              1175.4822              1203.3656
 Red. masses --      1.5516                 2.2345                 2.1830
 Frc consts  --      1.2516                 1.8191                 1.8626
 IR Inten    --     21.4614                35.6186                55.5202

                     46                     47                     48
                      A                      A                      A
 Frequencies --   1205.9007              1232.1025              1249.3879
 Red. masses --      1.6484                 1.8161                 1.3140
 Frc consts  --      1.4123                 1.6243                 1.2085
 IR Inten    --      6.1438                80.0225                51.8528

                     49                     50                     51
                      A                      A                      A
 Frequencies --   1288.5423              1313.0675              1325.2282
 Red. masses --      1.7390                 1.2638                 1.7593
 Frc consts  --      1.7012                 1.2839                 1.8204
 IR Inten    --    128.3609                 3.5260               116.6812

                     52                     53                     54
                      A                      A                      A
 Frequencies --   1338.1142              1361.6487              1413.9058
 Red. masses --      1.6828                 2.7078                 1.1970
 Frc consts  --      1.7753                 2.9580                 1.4099
 IR Inten    --     31.0614                 2.5009                 5.7461

                     55                     56                     57
                      A                      A                      A
 Frequencies --   1475.1424              1481.7017              1486.3551
 Red. masses --      1.2089                 1.1447                 1.0480
 Frc consts  --      1.5499                 1.4807                 1.3642
 IR Inten    --      0.5043                 3.2015                 6.9766

                     58                     59                     60
                      A                      A                      A
 Frequencies --   1508.3038              1511.2478              1604.5881
 Red. masses --      1.0516                 4.8196                 5.3657
 Frc consts  --      1.4095                 6.4854                 8.1397
 IR Inten    --     35.7214                 4.5616                85.9871

                     61                     62                     63
                      A                      A                      A
 Frequencies --   1605.1579              1628.4640              1649.1918
 Red. masses --      7.0348                 1.2178                 5.0162
 Frc consts  --     10.6791                 1.9028                 8.0384
 IR Inten    --     83.8319                25.1457                88.1689

                     64                     65                     66
                      A                      A                      A
 Frequencies --   1688.0625              2979.5095              3025.1350
 Red. masses --      8.5551                 1.0705                 1.0367
 Frc consts  --     14.3632                 5.5993                 5.5900
 IR Inten    --    101.1596                33.3707                56.7464

                     67                     68                     69
                      A                      A                      A
 Frequencies --   3103.3347              3108.0118              3138.6401
 Red. masses --      1.0917                 1.0971                 1.1049
 Frc consts  --      6.1948                 6.2441                 6.4131
 IR Inten    --     20.9796                27.5550                20.2746

                     70                     71                     72
                      A                      A                      A
 Frequencies --   3143.2783              3151.8894              3159.5330
 Red. masses --      1.0917                 1.0884                 1.0849
 Frc consts  --      6.3550                 6.3706                 6.3811
 IR Inten    --     11.3405                 5.4785                14.5426

                     73                     74                     75
                      A                      A                      A
 Frequencies --   3204.4562              3442.7451              3655.0738
 Red. masses --      1.0915                 1.0511                 1.0929
 Frc consts  --      6.6036                 7.3403                 8.6025
 IR Inten    --      8.6323                 2.8991                55.5354

 - Thermochemistry -
 -------------------
 Temperature   298.150 Kelvin.  Pressure   1.00000 Atm.
 Atom     1 has atomic number  6 and mass  12.00000

 Molecular mass:   253.03436 amu.
 Principal axes and moments of inertia in atomic units:
                           1         2         3
     Eigenvalues --  2060.540966070.505977464.54562
           X            0.99991   0.01223  -0.00481
           Y           -0.01213   0.99971   0.02073
           Z            0.00506  -0.02067   0.99977
 This molecule is an asymmetric top.
 Rotational symmetry number  1.
 Warning -- assumption of classical behavior for rotation
           may cause significant error
 Rotational temperatures (Kelvin)      0.04203     0.01427     0.01160
 Rotational constants (GHZ):           0.87586     0.29730     0.24178
 Zero-point vibrational energy     527892.8 (Joules/Mol)
                                  126.16942 (Kcal/Mol)
 Warning -- explicit consideration of  26 degrees of freedom as
           vibrations may cause significant error
 Vibrational temperatures:     62.00    78.74    99.83   145.27   157.84
          (Kelvin)            207.93   257.42   279.50   308.07   325.83
                              363.17   394.02   437.51   493.88   503.30
                              539.65   572.35   633.98   661.78   685.09
                              732.14   743.19   762.55   816.20   845.94
                              888.61   902.28   909.55   955.40   997.92
                             1092.25  1177.76  1226.26  1242.36  1270.44
                             1323.32  1365.17  1398.90  1469.23  1492.79
                             1526.64  1638.12  1683.52  1691.26  1731.37
                             1735.02  1772.72  1797.59  1853.93  1889.21
                             1906.71  1925.25  1959.11  2034.30  2122.40
                             2131.84  2138.53  2170.11  2174.35  2308.64
                             2309.46  2343.00  2372.82  2428.75  4286.85
                             4352.49  4465.01  4471.74  4515.80  4522.48
                             4534.87  4545.86  4610.50  4953.34  5258.84

 Zero-point correction=                           0.201064 (Hartree/Particle)
 Thermal correction to Energy=                    0.216646
 Thermal correction to Enthalpy=                  0.217590
 Thermal correction to Gibbs Free Energy=         0.158041
 Sum of electronic and zero-point Energies=          -1423.227043
 Sum of electronic and thermal Energies=             -1423.211461
 Sum of electronic and thermal Enthalpies=           -1423.210517
 Sum of electronic and thermal Free Energies=        -1423.270066

                     E (Thermal)             CV                S
                      KCal/Mol        Cal/Mol-Kelvin    Cal/Mol-Kelvin
 Total                  135.948             58.987            125.332
 Electronic               0.000              0.000              0.000
 Translational            0.889              2.981             42.485
 Rotational               0.889              2.981             32.901
 Vibrational            134.170             53.026             49.946
 Vibration     1          0.595              1.980              5.112
 Vibration     2          0.596              1.976              4.639
 Vibration     3          0.598              1.969              4.171
 Vibration     4          0.604              1.948              3.436
 Vibration     5          0.606              1.941              3.274
 Vibration     6          0.616              1.909              2.743
 Vibration     7          0.629              1.868              2.340
 Vibration     8          0.635              1.848              2.187
 Vibration     9          0.644              1.819              2.008
 Vibration    10          0.650              1.801              1.907
 Vibration    11          0.664              1.759              1.714
 Vibration    12          0.676              1.722              1.572
 Vibration    13          0.695              1.666              1.394
 Vibration    14          0.722              1.589              1.197
 Vibration    15          0.727              1.576              1.167
 Vibration    16          0.746              1.523              1.059
 Vibration    17          0.764              1.475              0.971
 Vibration    18          0.801              1.382              0.825
 Vibration    19          0.818              1.339              0.766
 Vibration    20          0.833              1.303              0.720
 Vibration    21          0.864              1.230              0.636
 Vibration    22          0.872              1.213              0.618
 Vibration    23          0.885              1.184              0.587
 Vibration    24          0.923              1.102              0.509
 Vibration    25          0.945              1.057              0.471
 Vibration    26          0.977              0.995              0.420

 Optimization completed.
    -- Stationary point found.
 Normal termination of Gaussian 16 at Fri May 19 15:26:01 2023.
