 Gaussian 16, Revision A.03,
 Gaussian 16:  ES64L-G16RevA.03 25-Dec-2016

 -----------------------------
 # opt freq b3lyp/6-31g(2df,p)
 -----------------------------

 -------------------
 Title Card Required
 -------------------
 Symbolic Z-matrix:
 Charge =  0 Multiplicity = 1

 SCF Done:  E(RB3LYP) =  -532.454000036     A.U. after   16 cycles
 SCF Done:  E(RB3LYP) =  -532.460915533     A.U. after   13 cycles
 SCF Done:  E(RB3LYP) =  -532.463956024     A.U. after   15 cycles
 SCF Done:  E(RB3LYP) =  -532.465021937     A.U. after   14 cycles
 SCF Done:  E(RB3LYP) =  -532.465315225     A.U. after   11 cycles
 SCF Done:  E(RB3LYP) =  -532.465393248     A.U. after   11 cycles
 SCF Done:  E(RB3LYP) =  -532.465404805     A.U. after   10 cycles
 SCF Done:  E(RB3LYP) =  -532.465408422     A.U. after    9 cycles
 SCF Done:  E(RB3LYP) =  -532.465409105     A.U. after    8 cycles
 Optimization completed.
    -- Stationary point found.
 Normal termination of Gaussian 16 at Thu May 18 07:24:40 2023.

 ----------------------------------------------------------------------
 #N Geom=AllCheck Guess=TCheck SCRF=Check GenChk RB3LYP/6-31G(2df,p) Fr
 eq
 ----------------------------------------------------------------------

 Structure from the checkpoint file:  "COc1cccc2c1dCCqdNrNd2.chk"
 -------------------
 Title Card Required
 -------------------
 Charge =  0 Multiplicity = 1

                         Standard orientation:
 ---------------------------------------------------------------------
 Center     Atomic      Atomic             Coordinates (Angstroms)
 Number     Number       Type             X           Y           Z
 ---------------------------------------------------------------------
      1          6           0        3.310993   -1.413339    0.000016
      2          8           0        1.891484   -1.404892    0.000133
      3          6           0        1.269927   -0.208239    0.000054
      4          6           0        1.857539    1.020331   -0.000267
      5          6           0        1.053272    2.226407   -0.000127
      6          6           0       -0.304811    2.239711    0.000141
      7          6           0       -0.989748    0.980506    0.000165
      8          6           0       -0.174589   -0.276233    0.000213
      9          6           0       -1.058886   -1.291351    0.000037
     10          6           0       -2.410015   -0.645710   -0.000234
     11          7           0       -3.556092   -1.209482   -0.000186
     12          7           0       -2.275394    0.762372    0.000160
     13          1           0        3.608744   -2.462264   -0.000260
     14          1           0        3.709282   -0.918255    0.893894
     15          1           0        3.709006   -0.918000   -0.893812
     16          1           0        2.933865    1.128001   -0.000645
     17          1           0        1.592893    3.168804   -0.000304
     18          1           0       -0.875696    3.159596    0.000263
     19          1           0       -0.872426   -2.355353    0.000098
     20          1           0       -3.439233   -2.226119   -0.000099
 ---------------------------------------------------------------------

 SCF Done:  E(RB3LYP) =  -532.465409105     A.U. after    1 cycles

 The electronic state is 1-A.
 Alpha  occ. eigenvalues --  -19.19577 -14.33078 -14.30479 -10.26572 -10.25475
 Alpha  occ. eigenvalues --  -10.25193 -10.23057 -10.21170 -10.20908 -10.20674
 Alpha  occ. eigenvalues --  -10.19732 -10.18832  -1.09052  -0.96359  -0.88953
 Alpha  occ. eigenvalues --   -0.84023  -0.79383  -0.74676  -0.72459  -0.68341
 Alpha  occ. eigenvalues --   -0.60075  -0.59179  -0.56822  -0.53068  -0.50770
 Alpha  occ. eigenvalues --   -0.49840  -0.48799  -0.46760  -0.45559  -0.42419
 Alpha  occ. eigenvalues --   -0.42373  -0.41526  -0.39056  -0.37631  -0.37014
 Alpha  occ. eigenvalues --   -0.34948  -0.33498  -0.28486  -0.28467  -0.27709
 Alpha  occ. eigenvalues --   -0.25750  -0.20917
 Alpha virt. eigenvalues --   -0.11154   0.01125   0.02320   0.08297   0.09220
 Alpha virt. eigenvalues --    0.09596   0.09953   0.11735   0.13917   0.14471
 Alpha virt. eigenvalues --    0.15055   0.16287   0.16842   0.18057   0.21917

 Mulliken charges:
               1
     1  C   -0.254097
     2  O   -0.249166
     3  C    0.303382
     4  C   -0.327232
     5  C   -0.068960
     6  C   -0.226200
     7  C    0.293953
     8  C    0.247324
     9  C   -0.369626
    10  C    0.357341
    11  N   -0.451367
    12  N   -0.362905
    13  H    0.143559
    14  H    0.134209
    15  H    0.134209
    16  H    0.106281
    17  H    0.110414
    18  H    0.117966
    19  H    0.129463
    20  H    0.231452
 Sum of Mulliken charges =  -0.00000

 Dipole moment (field-independent basis, Debye):
    X=              6.0080    Y=             -1.6559    Z=             -0.0004  Tot=              6.2320
 Quadrupole moment (field-independent basis, Debye-Ang):
   XX=            -73.2050   YY=            -59.0901   ZZ=            -69.7180
   XY=              4.3788   XZ=             -0.0011   YZ=             -0.0003

  Exact polarizability: 172.701  18.152 133.609  -0.002   0.000  50.553
 Approx polarizability: 307.763  49.491 238.000  -0.005  -0.001  83.648

                      1                      2                      3
                      A                      A                      A
 Frequencies --     92.2280               122.7751               177.2785
 Red. masses --      3.6064                 4.4511                 4.2289
 Frc consts  --      0.0181                 0.0395                 0.0783
 IR Inten    --      0.0786                 0.5444                 9.6738

                      4                      5                      6
                      A                      A                      A
 Frequencies --    181.0099               222.3936               265.8685
 Red. masses --      4.1783                 1.7010                 1.8725
 Frc consts  --      0.0807                 0.0496                 0.0780
 IR Inten    --      1.9829                 4.7950                 1.0034

                      7                      8                      9
                      A                      A                      A
 Frequencies --    321.3856               337.6516               396.2445
 Red. masses --      3.5754                 4.7824                 5.7290
 Frc consts  --      0.2176                 0.3212                 0.5300
 IR Inten    --      1.7983                 0.5487                15.5035

                     10                     11                     12
                      A                      A                      A
 Frequencies --    475.0508               492.3788               537.2263
 Red. masses --      7.4869                 3.1727                 4.3705
 Frc consts  --      0.9955                 0.4532                 0.7432
 IR Inten    --      8.7057                 1.0358                 1.4960

                     13                     14                     15
                      A                      A                      A
 Frequencies --    592.1058               631.9964               660.5913
 Red. masses --      5.2696                 3.7752                 5.4380
 Frc consts  --      1.0885                 0.8884                 1.3982
 IR Inten    --     11.7125                 0.0486                16.0380

                     16                     17                     18
                      A                      A                      A
 Frequencies --    712.7980               767.1006               793.4766
 Red. masses --      2.4057                 2.0288                 6.6756
 Frc consts  --      0.7202                 0.7034                 2.4763
 IR Inten    --      3.9894                 1.9918                 5.0315

                     19                     20                     21
                      A                      A                      A
 Frequencies --    822.2752               833.9846               846.9782
 Red. masses --      1.5913                 2.5654                 4.0372
 Frc consts  --      0.6339                 1.0513                 1.7064
 IR Inten    --     37.4201                29.7381                 1.2318

                     22                     23                     24
                      A                      A                      A
 Frequencies --    857.0708               909.5332               928.0780
 Red. masses --      1.5525                 6.0675                 1.3421
 Frc consts  --      0.6719                 2.9573                 0.6811
 IR Inten    --      0.4654                 1.7196                52.5567

                     25                     26                     27
                      A                      A                      A
 Frequencies --    984.9058               988.9815              1028.4778
 Red. masses --      1.2883                 6.1431                 2.7446
 Frc consts  --      0.7363                 3.5401                 1.7105
 IR Inten    --      0.1672                 4.9520               122.5727

                     28                     29                     30
                      A                      A                      A
 Frequencies --   1044.2306              1119.5824              1176.3181
 Red. masses --      2.3235                 2.9190                 1.2803
 Frc consts  --      1.4928                 2.1558                 1.0438
 IR Inten    --     17.8705                52.5361                 1.2785

                     31                     32                     33
                      A                      A                      A
 Frequencies --   1176.8015              1213.5860              1225.4896
 Red. masses --      1.1830                 1.3542                 1.8295
 Frc consts  --      0.9653                 1.1751                 1.6188
 IR Inten    --     19.0109                 4.4592                 9.1468

                     34                     35                     36
                      A                      A                      A
 Frequencies --   1290.8547              1315.4229              1340.6717
 Red. masses --      2.8122                 1.7366                 2.8438
 Frc consts  --      2.7609                 1.7705                 3.0115
 IR Inten    --    229.1837                22.0394                12.1166

                     37                     38                     39
                      A                      A                      A
 Frequencies --   1395.6809              1428.6126              1475.9590
 Red. masses --      2.5587                 2.5975                 1.3115
 Frc consts  --      2.9366                 3.1234                 1.6834
 IR Inten    --     58.0652                 8.8211                17.7242

                     40                     41                     42
                      A                      A                      A
 Frequencies --   1488.2667              1504.2370              1533.4933
 Red. masses --      1.0462                 1.0499                 6.7905
 Frc consts  --      1.3653                 1.3997                 9.4084
 IR Inten    --      7.0376                20.2613               167.7862

                     43                     44                     45
                      A                      A                      A
 Frequencies --   1581.5304              1629.6144              1684.3326
 Red. masses --      6.6672                 5.5313                 8.8165
 Frc consts  --      9.8254                 8.6546                14.7367
 IR Inten    --    130.7131                64.2913               106.0498

                     46                     47                     48
                      A                      A                      A
 Frequencies --   1716.5414              3014.8106              3079.0183
 Red. masses --      9.1525                 1.0337                 1.1051
 Frc consts  --     15.8890                 5.5356                 6.1726
 IR Inten    --      3.7029                46.8347                28.5723

                     49                     50                     51
                      A                      A                      A
 Frequencies --   3146.1094              3174.1129              3214.6532
 Red. masses --      1.1005                 1.0874                 1.0914
 Frc consts  --      6.4177                 6.4550                 6.6450
 IR Inten    --     15.2998                12.7290                 8.2416

                     52                     53                     54
                      A                      A                      A
 Frequencies --   3218.7495              3244.1555              3449.0119
 Red. masses --      1.0928                 1.0972                 1.0745
 Frc consts  --      6.6708                 6.8035                 7.5306
 IR Inten    --      8.3643                 0.3199                 2.0939

 - Thermochemistry -
 -------------------
 Temperature   298.150 Kelvin.  Pressure   1.00000 Atm.
 Atom     1 has atomic number  6 and mass  12.00000

 Molecular mass:   160.06366 amu.
 Principal axes and moments of inertia in atomic units:
                           1         2         3
     Eigenvalues --  1056.237522411.581983456.31743
           X            1.00000  -0.00133  -0.00000
           Y            0.00133   1.00000  -0.00000
           Z            0.00000   0.00000   1.00000
 This molecule is an asymmetric top.
 Rotational symmetry number  1.
 Warning -- assumption of classical behavior for rotation
           may cause significant error
 Rotational temperatures (Kelvin)      0.08200     0.03592     0.02506
 Rotational constants (GHZ):           1.70865     0.74836     0.52216
 Zero-point vibrational energy     405903.1 (Joules/Mol)
                                   97.01316 (Kcal/Mol)
 Warning -- explicit consideration of  13 degrees of freedom as
           vibrations may cause significant error
 Vibrational temperatures:    132.70   176.65   255.06   260.43   319.97
          (Kelvin)            382.53   462.40   485.81   570.11   683.49
                              708.42   772.95   851.91   909.30   950.44
                             1025.56  1103.69  1141.64  1183.07  1199.92
                             1218.61  1233.13  1308.62  1335.30  1417.06
                             1422.92  1479.75  1502.41  1610.83  1692.46
                             1693.15  1746.08  1763.21  1857.25  1892.60
                             1928.93  2008.07  2055.45  2123.58  2141.28
                             2164.26  2206.35  2275.47  2344.65  2423.38
                             2469.72  4337.64  4430.02  4526.55  4566.84
                             4625.17  4631.06  4667.62  4962.36

 Zero-point correction=                           0.154600 (Hartree/Particle)
 Thermal correction to Energy=                    0.164200
 Thermal correction to Enthalpy=                  0.165145
 Thermal correction to Gibbs Free Energy=         0.119651
 Sum of electronic and zero-point Energies=           -532.310809
 Sum of electronic and thermal Energies=              -532.301209
 Sum of electronic and thermal Enthalpies=            -532.300265
 Sum of electronic and thermal Free Energies=         -532.345758

                     E (Thermal)             CV                S
                      KCal/Mol        Cal/Mol-Kelvin    Cal/Mol-Kelvin
 Total                  103.037             37.623             95.749
 Electronic               0.000              0.000              0.000
 Translational            0.889              2.981             41.120
 Rotational               0.889              2.981             30.555
 Vibrational            101.260             31.661             24.074
 Vibration     1          0.602              1.955              3.612
 Vibration     2          0.610              1.930              3.056
 Vibration     3          0.628              1.870              2.357
 Vibration     4          0.630              1.866              2.318
 Vibration     5          0.648              1.807              1.940
 Vibration     6          0.672              1.736              1.623
 Vibration     7          0.707              1.633              1.303
 Vibration     8          0.718              1.600              1.223
 Vibration     9          0.763              1.478              0.977
 Vibration    10          0.832              1.305              0.724
 Vibration    11          0.848              1.267              0.677
 Vibration    12          0.892              1.168              0.571
 Vibration    13          0.950              1.049              0.463

 Optimization completed.
    -- Stationary point found.
 Normal termination of Gaussian 16 at Thu May 18 08:09:57 2023.
