 Gaussian 16, Revision A.03,
 Gaussian 16:  ES64L-G16RevA.03 25-Dec-2016

 -----------------------------
 # opt freq b3lyp/6-31g(2df,p)
 -----------------------------

 -------------------
 Title Card Required
 -------------------
 Symbolic Z-matrix:
 Charge =  0 Multiplicity = 1

 SCF Done:  E(RB3LYP) =  -1656.91612697     A.U. after   17 cycles
 SCF Done:  E(RB3LYP) =  -1656.94913895     A.U. after   15 cycles
 SCF Done:  E(RB3LYP) =  -1656.96933719     A.U. after   15 cycles
 SCF Done:  E(RB3LYP) =  -1656.99402058     A.U. after   15 cycles
 SCF Done:  E(RB3LYP) =  -1656.99666888     A.U. after   15 cycles
 SCF Done:  E(RB3LYP) =  -1657.00189318     A.U. after   14 cycles
 SCF Done:  E(RB3LYP) =  -1657.00272950     A.U. after   14 cycles
 SCF Done:  E(RB3LYP) =  -1657.00317384     A.U. after   14 cycles
 SCF Done:  E(RB3LYP) =  -1657.00294931     A.U. after   13 cycles
 SCF Done:  E(RB3LYP) =  -1657.00344832     A.U. after   13 cycles
 SCF Done:  E(RB3LYP) =  -1657.00366354     A.U. after   11 cycles
 SCF Done:  E(RB3LYP) =  -1657.00366654     A.U. after   10 cycles
 SCF Done:  E(RB3LYP) =  -1657.00367106     A.U. after   10 cycles
 SCF Done:  E(RB3LYP) =  -1657.00367646     A.U. after   12 cycles
 SCF Done:  E(RB3LYP) =  -1657.00367924     A.U. after   10 cycles
 SCF Done:  E(RB3LYP) =  -1657.00368412     A.U. after   10 cycles
 SCF Done:  E(RB3LYP) =  -1657.00368603     A.U. after   10 cycles
 SCF Done:  E(RB3LYP) =  -1657.00368617     A.U. after    7 cycles
 SCF Done:  E(RB3LYP) =  -1657.00368618     A.U. after    7 cycles
 Optimization completed.
    -- Stationary point found.
 Normal termination of Gaussian 16 at Thu May 18 10:48:23 2023.

 ----------------------------------------------------------------------
 #N Geom=AllCheck Guess=TCheck SCRF=Check GenChk RB3LYP/6-31G(2df,p) Fr
 eq
 ----------------------------------------------------------------------

 Structure from the checkpoint file:  "COCCqdOrC1CSCC1dCd[SH]S.chk"
 -------------------
 Title Card Required
 -------------------
 Charge =  0 Multiplicity = 1

                         Standard orientation:
 ---------------------------------------------------------------------
 Center     Atomic      Atomic             Coordinates (Angstroms)
 Number     Number       Type             X           Y           Z
 ---------------------------------------------------------------------
      1          6           0       -3.705925    2.445792   -1.378971
      2          8           0       -3.197998    1.849567   -0.207553
      3          6           0       -2.500099    0.669994   -0.460255
      4          6           0       -2.035920    0.049171    0.855946
      5          8           0       -2.448057    0.423914    1.922270
      6          6           0       -1.011750   -1.094224    0.760975
      7          6           0       -1.397009   -2.254869   -0.175676
      8         16           0        0.150879   -3.195460   -0.440896
      9          6           0        1.104061   -1.637354   -0.546727
     10          6           0        0.374795   -0.614553    0.325395
     11          6           0        0.882299    0.543001    0.698072
     12         16           0        2.141392    1.558432    0.408316
     13         16           0        4.337532    1.058610   -0.357117
     14          1           0       -4.231586    3.353681   -1.075748
     15          1           0       -4.412234    1.781667   -1.902016
     16          1           0       -2.903145    2.716370   -2.083013
     17          1           0       -1.625148    0.836438   -1.112551
     18          1           0       -3.136434   -0.072246   -0.979509
     19          1           0       -0.922925   -1.486683    1.779272
     20          1           0       -1.775816   -1.900663   -1.138317
     21          1           0       -2.141922   -2.915985    0.269834
     22          1           0        1.141839   -1.288444   -1.584256
     23          1           0        2.129049   -1.808070   -0.213661
     24          1           0        2.650175    1.636908    1.654188
     25          1           0        4.057029    1.572122   -1.569344
 ---------------------------------------------------------------------

 SCF Done:  E(RB3LYP) =  -1657.00368618     A.U. after    1 cycles

 The electronic state is 1-A.
 Alpha  occ. eigenvalues --  -88.97903 -88.88252 -88.85860 -19.15355 -19.14013
 Alpha  occ. eigenvalues --  -10.28044 -10.24848 -10.23770 -10.23571 -10.23547
 Alpha  occ. eigenvalues --  -10.23461 -10.22241 -10.22053  -8.03532  -7.94590
 Alpha  occ. eigenvalues --   -7.92705  -5.99917  -5.99683  -5.99296  -5.91073
 Alpha  occ. eigenvalues --   -5.90747  -5.90090  -5.89010  -5.88837  -5.88261
 Alpha  occ. eigenvalues --   -1.06219  -1.03986  -0.88060  -0.84644  -0.77490
 Alpha  occ. eigenvalues --   -0.76431  -0.74165  -0.70022  -0.67073  -0.64750
 Alpha  occ. eigenvalues --   -0.61102  -0.56880  -0.53611  -0.51099  -0.50799
 Alpha  occ. eigenvalues --   -0.49650  -0.47772  -0.45833  -0.44914  -0.44236
 Alpha  occ. eigenvalues --   -0.43323  -0.42239  -0.41650  -0.40820  -0.39471
 Alpha  occ. eigenvalues --   -0.38388  -0.37839  -0.36306  -0.34838  -0.34227
 Alpha  occ. eigenvalues --   -0.33214  -0.27774  -0.26692  -0.25426  -0.24890
 Alpha  occ. eigenvalues --   -0.23866  -0.22649
 Alpha virt. eigenvalues --   -0.08211  -0.04010  -0.02579   0.01249   0.02203
 Alpha virt. eigenvalues --    0.05594   0.05934   0.06655   0.07763   0.08840
 Alpha virt. eigenvalues --    0.10844   0.12009   0.12839   0.13664   0.14592

 Mulliken charges:
               1
     1  C   -0.227491
     2  O   -0.208238
     3  C   -0.162387
     4  C    0.354054
     5  O   -0.283705
     6  C   -0.141256
     7  C   -0.262944
     8  S   -0.134101
     9  C   -0.298752
    10  C    0.205521
    11  C   -0.146681
    12  S    0.042420
    13  S   -0.404653
    14  H    0.137194
    15  H    0.106332
    16  H    0.105613
    17  H    0.105058
    18  H    0.106087
    19  H    0.136775
    20  H    0.136023
    21  H    0.147674
    22  H    0.146711
    23  H    0.170110
    24  H    0.207786
    25  H    0.162849
 Sum of Mulliken charges =  -0.00000

 Dipole moment (field-independent basis, Debye):
    X=             -1.2607    Y=              0.2864    Z=             -2.6617  Tot=              2.9591
 Quadrupole moment (field-independent basis, Debye-Ang):
   XX=           -108.9604   YY=           -102.1988   ZZ=            -98.1920
   XY=              3.8285   XZ=             11.5361   YZ=             -5.2398

  Exact polarizability: 233.357  29.371 163.190 -16.902   2.184 118.460
 Approx polarizability: 413.110  52.582 246.566 -63.359   7.204 216.403

                      1                      2                      3
                      A                      A                      A
 Frequencies --     23.6011                28.5710                35.3437
 Red. masses --      4.2269                 4.6909                 4.8570
 Frc consts  --      0.0014                 0.0023                 0.0036
 IR Inten    --      0.7502                 1.8123                 7.9119

                      4                      5                      6
                      A                      A                      A
 Frequencies --     55.8673                79.1242                84.3458
 Red. masses --      5.8532                 3.7439                 3.4201
 Frc consts  --      0.0108                 0.0138                 0.0143
 IR Inten    --      1.3628                 1.5516                 1.2877

                      7                      8                      9
                      A                      A                      A
 Frequencies --    104.9952               113.3961               162.8458
 Red. masses --      5.6231                 3.4894                 2.1909
 Frc consts  --      0.0365                 0.0264                 0.0342
 IR Inten    --      1.5605                 4.1949                 7.2695

                     10                     11                     12
                      A                      A                      A
 Frequencies --    175.5185               197.2611               229.0624
 Red. masses --      2.4669                 2.0968                 2.8589
 Frc consts  --      0.0448                 0.0481                 0.0884
 IR Inten    --     10.7771                 1.7147                10.4750

                     13                     14                     15
                      A                      A                      A
 Frequencies --    233.1971               259.1989               279.5310
 Red. masses --      1.3775                 4.0753                 9.1153
 Frc consts  --      0.0441                 0.1613                 0.4196
 IR Inten    --     22.3423                32.7298                89.3980

                     16                     17                     18
                      A                      A                      A
 Frequencies --    348.9834               373.6208               387.5068
 Red. masses --      6.0169                 4.0118                 6.5000
 Frc consts  --      0.4317                 0.3300                 0.5751
 IR Inten    --      3.6003                 1.6478                24.9279

                     19                     20                     21
                      A                      A                      A
 Frequencies --    435.7302               477.9726               552.7248
 Red. masses --      4.0664                 7.1219                 2.8612
 Frc consts  --      0.4549                 0.9586                 0.5150
 IR Inten    --      2.1174                27.5099                10.0822

                     22                     23                     24
                      A                      A                      A
 Frequencies --    572.9820               582.7902               632.1878
 Red. masses --      1.1799                 4.9001                 2.8971
 Frc consts  --      0.2282                 0.9806                 0.6822
 IR Inten    --     12.7349                66.9155                31.5292

                     25                     26                     27
                      A                      A                      A
 Frequencies --    708.6322               731.8867               744.7280
 Red. masses --      4.8966                 1.4863                 3.1144
 Frc consts  --      1.4487                 0.4691                 1.0177
 IR Inten    --     39.4897                17.0455                 8.8412

                     28                     29                     30
                      A                      A                      A
 Frequencies --    760.4497               842.0156               890.0053
 Red. masses --      3.5781                 3.4678                 1.6696
 Frc consts  --      1.2191                 1.4486                 0.7792
 IR Inten    --     16.1569                 3.9895                 2.2955

                     31                     32                     33
                      A                      A                      A
 Frequencies --    908.3627               930.4658               987.8209
 Red. masses --      2.0449                 3.0604                 2.2260
 Frc consts  --      0.9941                 1.5611                 1.2798
 IR Inten    --     14.7376                17.0766                 4.5824

                     34                     35                     36
                      A                      A                      A
 Frequencies --   1015.6111              1025.8303              1052.4607
 Red. masses --      4.0348                 1.1929                 2.4399
 Frc consts  --      2.4521                 0.7396                 1.5923
 IR Inten    --     23.1585                14.9374                 8.2536

                     37                     38                     39
                      A                      A                      A
 Frequencies --   1103.1111              1135.7150              1147.0100
 Red. masses --      4.1914                 1.1626                 3.8004
 Frc consts  --      3.0050                 0.8835                 2.9458
 IR Inten    --     20.8378                22.2717               204.4230

                     40                     41                     42
                      A                      A                      A
 Frequencies --   1157.6659              1175.3985              1183.6351
 Red. masses --      1.4145                 2.3222                 1.2868
 Frc consts  --      1.1169                 1.8902                 1.0621
 IR Inten    --      4.1613                66.4032                 2.3569

                     43                     44                     45
                      A                      A                      A
 Frequencies --   1223.1341              1240.6006              1251.4369
 Red. masses --      1.2601                 2.2368                 1.2477
 Frc consts  --      1.1108                 2.0284                 1.1513
 IR Inten    --     44.8147                42.5083                 8.6407

                     46                     47                     48
                      A                      A                      A
 Frequencies --   1265.3042              1278.7090              1324.4092
 Red. masses --      1.1379                 1.4375                 1.2300
 Frc consts  --      1.0734                 1.3849                 1.2711
 IR Inten    --      9.0508                10.0554                 7.8811

                     49                     50                     51
                      A                      A                      A
 Frequencies --   1405.7861              1457.9004              1468.5138
 Red. masses --      1.5200                 1.0807                 1.0943
 Frc consts  --      1.7699                 1.3534                 1.3904
 IR Inten    --      3.5842                 1.6800                22.1376

                     52                     53                     54
                      A                      A                      A
 Frequencies --   1481.4142              1486.7558              1491.3221
 Red. masses --      1.0940                 1.0471                 1.0978
 Frc consts  --      1.4146                 1.3637                 1.4385
 IR Inten    --      1.7304                 6.1419                 6.3668

                     55                     56                     57
                      A                      A                      A
 Frequencies --   1516.6284              1744.7537              1827.9221
 Red. masses --      1.1065                11.2017                11.8139
 Frc consts  --      1.4996                20.0910                23.2573
 IR Inten    --      4.0856                12.7199               167.5386

                     58                     59                     60
                      A                      A                      A
 Frequencies --   2636.1620              2683.3551              2926.1830
 Red. masses --      1.0401                 1.0389                 1.0641
 Frc consts  --      4.2588                 4.4072                 5.3681
 IR Inten    --      3.3291                 3.8025                43.8064

                     61                     62                     63
                      A                      A                      A
 Frequencies --   2965.5267              2972.1890              3015.0681
 Red. masses --      1.0757                 1.0501                 1.1034
 Frc consts  --      5.5735                 5.4657                 5.9096
 IR Inten    --     64.1924                45.9850                51.6523

                     64                     65                     66
                      A                      A                      A
 Frequencies --   3042.0522              3055.4797              3065.2154
 Red. masses --      1.0664                 1.0774                 1.0671
 Frc consts  --      5.8145                 5.9262                 5.9074
 IR Inten    --      7.2126                 6.4926                20.0032

                     67                     68                     69
                      A                      A                      A
 Frequencies --   3120.6712              3122.5667              3130.2623
 Red. masses --      1.0971                 1.0957                 1.1034
 Frc consts  --      6.2947                 6.2948                 6.3700
 IR Inten    --      0.3353                26.7414                 4.1002

 - Thermochemistry -
 -------------------
 Temperature   298.150 Kelvin.  Pressure   1.00000 Atm.
 Atom     1 has atomic number  6 and mass  12.00000

 Molecular mass:   235.99995 amu.
 Principal axes and moments of inertia in atomic units:
                           1         2         3
     Eigenvalues --  3171.624465737.981107834.27202
           X            0.99969  -0.01961   0.01524
           Y            0.01993   0.99958  -0.02090
           Z           -0.01483   0.02120   0.99967
 This molecule is an asymmetric top.
 Rotational symmetry number  1.
 Warning -- assumption of classical behavior for rotation
           may cause significant error
 Rotational temperatures (Kelvin)      0.02731     0.01509     0.01106
 Rotational constants (GHZ):           0.56903     0.31453     0.23036
 Zero-point vibrational energy     485244.1 (Joules/Mol)
                                  115.97613 (Kcal/Mol)
 Warning -- explicit consideration of  23 degrees of freedom as
           vibrations may cause significant error
 Vibrational temperatures:     33.96    41.11    50.85    80.38   113.84
          (Kelvin)            121.35   151.06   163.15   234.30   252.53
                              283.81   329.57   335.52   372.93   402.18
                              502.11   537.56   557.54   626.92   687.70
                              795.25   824.39   838.51   909.58  1019.56
                             1053.02  1071.50  1094.12  1211.47  1280.52
                             1306.93  1338.73  1421.25  1461.24  1475.94
                             1514.26  1587.13  1634.04  1650.29  1665.62
                             1691.14  1702.99  1759.82  1784.95  1800.54
                             1820.49  1839.78  1905.53  2022.61  2097.59
                             2112.86  2131.42  2139.11  2145.68  2182.09
                             2510.31  2629.97  3792.85  3860.75  4210.12
                             4266.73  4276.32  4338.01  4376.83  4396.15
                             4410.16  4489.95  4492.68  4503.75

 Zero-point correction=                           0.184820 (Hartree/Particle)
 Thermal correction to Energy=                    0.201035
 Thermal correction to Enthalpy=                  0.201979
 Thermal correction to Gibbs Free Energy=         0.137597
 Sum of electronic and zero-point Energies=          -1656.818866
 Sum of electronic and thermal Energies=             -1656.802652
 Sum of electronic and thermal Enthalpies=           -1656.801707
 Sum of electronic and thermal Free Energies=        -1656.866089

                     E (Thermal)             CV                S
                      KCal/Mol        Cal/Mol-Kelvin    Cal/Mol-Kelvin
 Total                  126.151             55.494            135.503
 Electronic               0.000              0.000              0.000
 Translational            0.889              2.981             42.278
 Rotational               0.889              2.981             33.322
 Vibrational            124.374             49.533             59.904
 Vibration     1          0.593              1.985              6.306
 Vibration     2          0.593              1.984              5.926
 Vibration     3          0.594              1.982              5.504
 Vibration     4          0.596              1.975              4.598
 Vibration     5          0.600              1.963              3.912
 Vibration     6          0.601              1.960              3.787
 Vibration     7          0.605              1.945              3.359
 Vibration     8          0.607              1.938              3.210
 Vibration     9          0.623              1.888              2.516
 Vibration    10          0.627              1.873              2.376
 Vibration    11          0.637              1.844              2.158
 Vibration    12          0.652              1.797              1.886
 Vibration    13          0.654              1.790              1.854
 Vibration    14          0.668              1.747              1.667
 Vibration    15          0.680              1.711              1.537
 Vibration    16          0.726              1.577              1.171
 Vibration    17          0.745              1.526              1.065
 Vibration    18          0.756              1.497              1.010
 Vibration    19          0.796              1.392              0.840
 Vibration    20          0.834              1.299              0.716
 Vibration    21          0.908              1.134              0.539
 Vibration    22          0.929              1.090              0.499
 Vibration    23          0.940              1.069              0.480

                           ! Non-Optimized Parameters !
 Normal termination of Gaussian 16 at Thu May 18 11:58:15 2023.
