 Gaussian 16, Revision A.03,
 Gaussian 16:  ES64L-G16RevA.03 25-Dec-2016

 -----------------------------
 # opt freq b3lyp/6-31g(2df,p)
 -----------------------------

 -------------------
 Title Card Required
 -------------------
 Symbolic Z-matrix:
 Charge =  0 Multiplicity = 1

 SCF Done:  E(RB3LYP) =  -685.479405923     A.U. after   25 cycles
 SCF Done:  E(RB3LYP) =  -685.560117051     A.U. after   20 cycles
 SCF Done:  E(RB3LYP) =  -685.658278276     A.U. after   19 cycles
 SCF Done:  E(RB3LYP) =  -685.738714068     A.U. after   17 cycles
 SCF Done:  E(RB3LYP) =  -685.724527429     A.U. after   21 cycles
 SCF Done:  E(RB3LYP) =  -685.805387702     A.U. after   16 cycles
 SCF Done:  E(RB3LYP) =  -685.830655709     A.U. after   16 cycles
 SCF Done:  E(RB3LYP) =  -685.839092897     A.U. after   15 cycles
 SCF Done:  E(RB3LYP) =  -685.842414840     A.U. after   15 cycles
 SCF Done:  E(RB3LYP) =  -685.844612955     A.U. after   16 cycles
 SCF Done:  E(RB3LYP) =  -685.873354794     A.U. after   11 cycles
 SCF Done:  E(RB3LYP) =  -685.873367747     A.U. after   11 cycles
 SCF Done:  E(RB3LYP) =  -685.873387511     A.U. after   11 cycles
 SCF Done:  E(RB3LYP) =  -685.873417924     A.U. after   11 cycles
 SCF Done:  E(RB3LYP) =  -685.873452524     A.U. after   11 cycles
 SCF Done:  E(RB3LYP) =  -685.873475071     A.U. after   11 cycles
 SCF Done:  E(RB3LYP) =  -685.873482763     A.U. after   10 cycles
 SCF Done:  E(RB3LYP) =  -685.873483492     A.U. after    9 cycles
 SCF Done:  E(RB3LYP) =  -685.873483823     A.U. after    8 cycles
 Optimization completed.
    -- Stationary point found.
 Normal termination of Gaussian 16 at Sat May 20 04:13:08 2023.

 ----------------------------------------------------------------------
 #N Geom=AllCheck Guess=TCheck SCRF=Check GenChk RB3LYP/6-31G(2df,p) Fr
 eq
 ----------------------------------------------------------------------

 Structure from the checkpoint file:  "COCC1dCdCdCC2dCCdC2CqdNrCdCdN1.chk"
 -------------------
 Title Card Required
 -------------------
 Charge =  0 Multiplicity = 1

                         Standard orientation:
 ---------------------------------------------------------------------
 Center     Atomic      Atomic             Coordinates (Angstroms)
 Number     Number       Type             X           Y           Z
 ---------------------------------------------------------------------
      1          6           0        5.481584    0.337460   -0.155431
      2          8           0        4.084163    0.359619   -0.341643
      3          6           0        3.425699   -0.667395    0.367176
      4          6           0        1.951258   -0.480433    0.227585
      5          6           0        1.044759   -1.362304   -0.208590
      6          6           0       -0.121950   -1.783995   -0.364763
      7          6           0       -1.423864   -2.094215   -0.404689
      8          6           0       -2.446646   -1.167288   -0.084322
      9          6           0       -3.950388   -1.442479    0.194075
     10          6           0       -4.172106   -0.141482    0.378411
     11          6           0       -2.674827    0.186583    0.096382
     12          6           0       -2.114671    1.503852   -0.119387
     13          7           0       -2.888442    2.529078   -0.320687
     14          6           0       -0.668293    1.811578   -0.240884
     15          6           0        0.391763    1.232249    0.266456
     16          7           0        1.413423    0.731551    0.714864
     17          1           0        5.896485    1.168825   -0.729300
     18          1           0        5.927511   -0.602602   -0.516385
     19          1           0        5.752859    0.463144    0.904390
     20          1           0        3.693711   -0.623259    1.438039
     21          1           0        3.706858   -1.662599   -0.008289
     22          1           0       -1.737400   -3.113296   -0.619298
     23          1           0       -4.540793   -2.346401    0.246865
     24          1           0       -5.031525    0.455089    0.651647
     25          1           0       -3.867740    2.241446   -0.304931
     26          1           0       -0.482049    2.725504   -0.800943
 ---------------------------------------------------------------------

 SCF Done:  E(RB3LYP) =  -685.873483823     A.U. after    1 cycles

 The electronic state is 1-A.
 Alpha  occ. eigenvalues --  -19.15095 -14.37141 -14.29803 -10.26017 -10.25731
 Alpha  occ. eigenvalues --  -10.24842 -10.24166 -10.23145 -10.22765 -10.22053
 Alpha  occ. eigenvalues --  -10.21527 -10.21474 -10.20781 -10.20595 -10.20198
 Alpha  occ. eigenvalues --  -10.20123  -1.04520  -0.97190  -0.90716  -0.87602
 Alpha  occ. eigenvalues --   -0.82217  -0.79692  -0.76082  -0.73640  -0.69019
 Alpha  occ. eigenvalues --   -0.67546  -0.63956  -0.62570  -0.59453  -0.57651
 Alpha  occ. eigenvalues --   -0.54084  -0.52861  -0.49797  -0.49566  -0.49233
 Alpha  occ. eigenvalues --   -0.47471  -0.46342  -0.44268  -0.42401  -0.41417
 Alpha  occ. eigenvalues --   -0.40894  -0.40380  -0.39222  -0.38362  -0.36367
 Alpha  occ. eigenvalues --   -0.35003  -0.33140  -0.32502  -0.31800  -0.28082
 Alpha  occ. eigenvalues --   -0.26790  -0.26171  -0.25665  -0.23272  -0.18199
 Alpha virt. eigenvalues --   -0.10848  -0.04160  -0.03105  -0.00148   0.01431
 Alpha virt. eigenvalues --    0.07087   0.08748   0.09932   0.10881   0.11727
 Alpha virt. eigenvalues --    0.13174   0.13328   0.14251   0.14471   0.14750

 Mulliken charges:
               1
     1  C   -0.224392
     2  O   -0.230459
     3  C   -0.149881
     4  C    0.109084
     5  C   -0.006358
     6  C    0.222078
     7  C   -0.444048
     8  C    0.231967
     9  C   -0.165974
    10  C   -0.160798
    11  C    0.078652
    12  C    0.202829
    13  N   -0.522973
    14  C   -0.289791
    15  C    0.361460
    16  N   -0.334949
    17  H    0.134408
    18  H    0.107380
    19  H    0.109331
    20  H    0.110452
    21  H    0.106739
    22  H    0.127381
    23  H    0.125033
    24  H    0.131488
    25  H    0.212921
    26  H    0.158419
 Sum of Mulliken charges =  -0.00000

 Dipole moment (field-independent basis, Debye):
    X=              0.8438    Y=             -3.4411    Z=              0.5337  Tot=              3.5830
 Quadrupole moment (field-independent basis, Debye-Ang):
   XX=            -69.6912   YY=            -93.5795   ZZ=            -93.4648
   XY=              6.1418   XZ=              0.0359   YZ=              0.0493

  Exact polarizability: 308.489 -11.170 171.290   6.778   1.340  79.258
 Approx polarizability: 616.389 -72.569 356.624  36.769   6.735 138.593

                      1                      2                      3
                      A                      A                      A
 Frequencies --     38.7757                54.8474                59.6290
 Red. masses --      4.2414                 4.9097                 4.6626
 Frc consts  --      0.0038                 0.0087                 0.0098
 IR Inten    --      0.6932                 0.9843                 0.5018

                      4                      5                      6
                      A                      A                      A
 Frequencies --     85.1003               105.1160               154.8795
 Red. masses --      2.2599                 4.5961                 4.7142
 Frc consts  --      0.0096                 0.0299                 0.0666
 IR Inten    --      5.4478                 0.9375                 2.9554

                      7                      8                      9
                      A                      A                      A
 Frequencies --    177.5441               192.9419               221.9300
 Red. masses --      5.9785                 5.4024                 1.9458
 Frc consts  --      0.1110                 0.1185                 0.0565
 IR Inten    --      6.1094                 0.9612                 1.4228

                     10                     11                     12
                      A                      A                      A
 Frequencies --    228.1673               264.8055               278.7827
 Red. masses --      2.3269                 4.4612                 3.5871
 Frc consts  --      0.0714                 0.1843                 0.1643
 IR Inten    --      1.6872                 3.4667                 5.6911

                     13                     14                     15
                      A                      A                      A
 Frequencies --    330.9501               343.4890               368.2563
 Red. masses --      3.6622                 3.5080                 4.6519
 Frc consts  --      0.2363                 0.2439                 0.3717
 IR Inten    --      4.3697                 0.7761                 0.6282

                     16                     17                     18
                      A                      A                      A
 Frequencies --    381.3779               469.0277               471.2732
 Red. masses --      5.9419                 4.0940                 5.6728
 Frc consts  --      0.5092                 0.5306                 0.7423
 IR Inten    --      0.7618                 3.2327                 2.8087

                     19                     20                     21
                      A                      A                      A
 Frequencies --    500.7222               526.8741               574.2246
 Red. masses --      6.7476                 6.7084                 3.5939
 Frc consts  --      0.9968                 1.0972                 0.6982
 IR Inten    --     21.7847                 8.7492                 5.0559

                     22                     23                     24
                      A                      A                      A
 Frequencies --    578.8986               634.7402               646.3793
 Red. masses --      5.1065                 2.8535                 2.1916
 Frc consts  --      1.0083                 0.6774                 0.5395
 IR Inten    --      6.3898                 0.2937                58.3195

                     25                     26                     27
                      A                      A                      A
 Frequencies --    653.2757               674.5676               706.7726
 Red. masses --      2.9860                 5.6132                 3.1194
 Frc consts  --      0.7508                 1.5049                 0.9181
 IR Inten    --     16.9897                42.6759                12.8532

                     28                     29                     30
                      A                      A                      A
 Frequencies --    762.4102               790.3383               808.5363
 Red. masses --      4.3314                 2.7399                 3.9655
 Frc consts  --      1.4834                 1.0084                 1.5274
 IR Inten    --      4.0543                31.8808                12.8452

                     31                     32                     33
                      A                      A                      A
 Frequencies --    838.6346               852.7060               856.7558
 Red. masses --      1.4702                 1.2924                 1.4326
 Frc consts  --      0.6092                 0.5537                 0.6196
 IR Inten    --      7.6314                24.7944                23.1913

                     34                     35                     36
                      A                      A                      A
 Frequencies --    929.9153               946.0033               979.5177
 Red. masses --      4.3091                 3.1620                 3.6573
 Frc consts  --      2.1955                 1.6672                 2.0675
 IR Inten    --      3.2517                 4.0291                48.9334

                     37                     38                     39
                      A                      A                      A
 Frequencies --    987.6302              1068.5788              1097.5834
 Red. masses --      3.3321                 1.2531                 2.7245
 Frc consts  --      1.9150                 0.8430                 1.9338
 IR Inten    --     20.1690                17.8823                42.7724

                     40                     41                     42
                      A                      A                      A
 Frequencies --   1133.7808              1146.1995              1158.8918
 Red. masses --      2.9776                 2.9225                 2.6921
 Frc consts  --      2.2551                 2.2621                 2.1302
 IR Inten    --    101.0698                43.7950               167.5259

                     43                     44                     45
                      A                      A                      A
 Frequencies --   1183.5065              1205.1302              1217.6259
 Red. masses --      1.2957                 2.1493                 1.6504
 Frc consts  --      1.0693                 1.8392                 1.4417
 IR Inten    --      2.2296                24.1123                44.6827

                     46                     47                     48
                      A                      A                      A
 Frequencies --   1225.0299              1246.3174              1264.5486
 Red. masses --      1.6306                 1.6466                 1.1775
 Frc consts  --      1.4418                 1.5069                 1.1094
 IR Inten    --      8.3849                24.0254                20.1879

                     49                     50                     51
                      A                      A                      A
 Frequencies --   1355.6293              1382.8645              1419.3528
 Red. masses --      1.8106                 1.7755                 1.8222
 Frc consts  --      1.9605                 2.0004                 2.1629
 IR Inten    --    137.4130                63.3911                61.4100

                     52                     53                     54
                      A                      A                      A
 Frequencies --   1435.8539              1476.7410              1485.5529
 Red. masses --      6.2773                 1.1515                 1.0504
 Frc consts  --      7.6251                 1.4795                 1.3658
 IR Inten    --     67.6729                 3.1414                 5.6907

                     55                     56                     57
                      A                      A                      A
 Frequencies --   1493.0061              1514.6104              1536.5351
 Red. masses --      1.0760                 1.0792                 7.9527
 Frc consts  --      1.4132                 1.4587                11.0624
 IR Inten    --      5.8874                 3.8286               127.8879

                     58                     59                     60
                      A                      A                      A
 Frequencies --   1554.4614              1637.6900              1641.3572
 Red. masses --      9.4825                 9.2815                 6.3944
 Frc consts  --     13.5000                14.6666                10.1498
 IR Inten    --      2.5835                 3.1452                 1.3799

                     61                     62                     63
                      A                      A                      A
 Frequencies --   2069.5783              2148.3653              2945.5483
 Red. masses --     11.9817                11.7849                 1.0637
 Frc consts  --     30.2366                32.0473                 5.4373
 IR Inten    --    117.2984                73.7145                29.1405

                     64                     65                     66
                      A                      A                      A
 Frequencies --   2973.3219              3010.7362              3019.6750
 Red. masses --      1.0383                 1.0931                 1.1034
 Frc consts  --      5.4083                 5.8378                 5.9281
 IR Inten    --    104.6426                53.0263                37.8512

                     67                     68                     69
                      A                      A                      A
 Frequencies --   3122.1670              3144.8960              3152.9082
 Red. masses --      1.0961                 1.0860                 1.0835
 Frc consts  --      6.2954                 6.3283                 6.3458
 IR Inten    --     25.2303                 4.1784                 6.4518

                     70                     71                     72
                      A                      A                      A
 Frequencies --   3213.9905              3249.1530              3467.0273
 Red. masses --      1.0830                 1.1180                 1.0734
 Frc consts  --      6.5913                 6.9543                 7.6020
 IR Inten    --      4.7532                 7.6331                 1.9229

 - Thermochemistry -
 -------------------
 Temperature   298.150 Kelvin.  Pressure   1.00000 Atm.
 Atom     1 has atomic number  6 and mass  12.00000

 Molecular mass:   210.07931 amu.
 Principal axes and moments of inertia in atomic units:
                           1         2         3
     Eigenvalues --  1457.406206546.175767814.47897
           X            1.00000   0.00090   0.00075
           Y           -0.00089   0.99998  -0.00622
           Z           -0.00076   0.00622   0.99998
 This molecule is an asymmetric top.
 Rotational symmetry number  1.
 Warning -- assumption of classical behavior for rotation
           may cause significant error
 Rotational temperatures (Kelvin)      0.05943     0.01323     0.01108
 Rotational constants (GHZ):           1.23832     0.27569     0.23095
 Zero-point vibrational energy     507659.3 (Joules/Mol)
                                  121.33349 (Kcal/Mol)
 Warning -- explicit consideration of  22 degrees of freedom as
           vibrations may cause significant error
 Vibrational temperatures:     55.79    78.91    85.79   122.44   151.24
          (Kelvin)            222.84   255.45   277.60   319.31   328.28
                              381.00   401.11   476.16   494.20   529.84
                              548.72   674.83   678.06   720.43   758.05
                              826.18   832.91   913.25   930.00   939.92
                              970.55  1016.89  1096.94  1137.12  1163.30
                             1206.61  1226.85  1232.68  1337.94  1361.09
                             1409.31  1420.98  1537.45  1579.18  1631.26
                             1649.13  1667.39  1702.80  1733.91  1751.89
                             1762.54  1793.17  1819.40  1950.45  1989.63
                             2042.13  2065.87  2124.70  2137.38  2148.10
                             2179.19  2210.73  2236.52  2356.27  2361.55
                             2977.66  3091.02  4237.99  4277.95  4331.78
                             4344.64  4492.10  4524.80  4536.33  4624.22
                             4674.81  4988.28

 Zero-point correction=                           0.193357 (Hartree/Particle)
 Thermal correction to Energy=                    0.208161
 Thermal correction to Enthalpy=                  0.209105
 Thermal correction to Gibbs Free Energy=         0.150823
 Sum of electronic and zero-point Energies=           -685.680127
 Sum of electronic and thermal Energies=              -685.665323
 Sum of electronic and thermal Enthalpies=            -685.664379
 Sum of electronic and thermal Free Energies=         -685.722661

                     E (Thermal)             CV                S
                      KCal/Mol        Cal/Mol-Kelvin    Cal/Mol-Kelvin
 Total                  130.623             55.327            122.664
 Electronic               0.000              0.000              0.000
 Translational            0.889              2.981             41.931
 Rotational               0.889              2.981             32.678
 Vibrational            128.845             49.366             48.056
 Vibration     1          0.594              1.981              5.321
 Vibration     2          0.596              1.976              4.634
 Vibration     3          0.597              1.974              4.469
 Vibration     4          0.601              1.960              3.770
 Vibration     5          0.605              1.945              3.357
 Vibration     6          0.620              1.897              2.611
 Vibration     7          0.628              1.870              2.354
 Vibration     8          0.635              1.850              2.199
 Vibration     9          0.648              1.808              1.943
 Vibration    10          0.651              1.798              1.893
 Vibration    11          0.671              1.738              1.630
 Vibration    12          0.679              1.713              1.541
 Vibration    13          0.713              1.614              1.255
 Vibration    14          0.722              1.589              1.196
 Vibration    15          0.741              1.537              1.087
 Vibration    16          0.751              1.510              1.034
 Vibration    17          0.826              1.319              0.740
 Vibration    18          0.828              1.314              0.734
 Vibration    19          0.856              1.248              0.656
 Vibration    20          0.882              1.191              0.594
 Vibration    21          0.931              1.087              0.496
 Vibration    22          0.935              1.077              0.487

 Optimization completed.
    -- Stationary point found.
 Normal termination of Gaussian 16 at Sat May 20 06:01:28 2023.
