 Gaussian 16, Revision A.03,
 Gaussian 16:  ES64L-G16RevA.03 25-Dec-2016

 -----------------------------
 # opt freq b3lyp/6-31g(2df,p)
 -----------------------------

 -------------------
 Title Card Required
 -------------------
 Symbolic Z-matrix:
 Charge =  0 Multiplicity = 1

 SCF Done:  E(RB3LYP) =  -1192.02716522     A.U. after   32 cycles
 SCF Done:  E(RB3LYP) =  -1192.08778148     A.U. after   22 cycles
 SCF Done:  E(RB3LYP) =  -1192.14520508     A.U. after   24 cycles
 SCF Done:  E(RB3LYP) =  -1192.21399130     A.U. after   17 cycles
 SCF Done:  E(RB3LYP) =  -1192.00714473     A.U. after   19 cycles
 SCF Done:  E(RB3LYP) =  -1192.26731369     A.U. after   16 cycles
 SCF Done:  E(RB3LYP) =  -1192.27529505     A.U. after   15 cycles
 SCF Done:  E(RB3LYP) =  -1192.26901890     A.U. after   16 cycles
 SCF Done:  E(RB3LYP) =  -1192.27879319     A.U. after   15 cycles
 SCF Done:  E(RB3LYP) =  -1192.27675645     A.U. after   15 cycles
 SCF Done:  E(RB3LYP) =  -1192.30400125     A.U. after   12 cycles
 SCF Done:  E(RB3LYP) =  -1192.30401382     A.U. after   12 cycles
 SCF Done:  E(RB3LYP) =  -1192.30402765     A.U. after   10 cycles
 SCF Done:  E(RB3LYP) =  -1192.30403628     A.U. after   10 cycles
 SCF Done:  E(RB3LYP) =  -1192.30404328     A.U. after   10 cycles
 SCF Done:  E(RB3LYP) =  -1192.30404643     A.U. after   10 cycles
 SCF Done:  E(RB3LYP) =  -1192.30404740     A.U. after    8 cycles
 SCF Done:  E(RB3LYP) =  -1192.30404747     A.U. after    6 cycles
 SCF Done:  E(RB3LYP) =  -1192.30404750     A.U. after    7 cycles
 Optimization completed.
    -- Stationary point found.
 Normal termination of Gaussian 16 at Fri May 19 12:01:54 2023.

 ----------------------------------------------------------------------
 #N Geom=AllCheck Guess=TCheck SCRF=Check GenChk RB3LYP/6-31G(2df,p) Fr
 eq
 ----------------------------------------------------------------------

 Structure from the checkpoint file:  "COCCdNNNNCNNC1dCCdC1C1dCS1.chk"
 -------------------
 Title Card Required
 -------------------
 Charge =  0 Multiplicity = 1

                         Standard orientation:
 ---------------------------------------------------------------------
 Center     Atomic      Atomic             Coordinates (Angstroms)
 Number     Number       Type             X           Y           Z
 ---------------------------------------------------------------------
      1          6           0       -7.805712   -0.984483   -0.121578
      2          8           0       -6.729651   -0.079521   -0.051923
      3          6           0       -5.539372   -0.684293    0.414820
      4          6           0       -4.490155    0.374836    0.536775
      5          7           0       -3.337101    0.205036    0.023154
      6          7           0       -2.386552    1.160968    0.265630
      7          7           0       -1.380911    1.209021   -0.720981
      8          7           0       -0.088041    1.379480   -0.183651
      9          6           0        0.508693    0.131565    0.232643
     10          7           0        1.213303   -0.441510   -0.932935
     11          7           0        1.888534   -1.624002   -0.596378
     12          6           0        3.131992   -1.701209   -0.147383
     13          6           0        3.993858   -2.937737    0.119398
     14          6           0        5.001645   -2.122356    0.467527
     15          6           0        4.173441   -0.848005    0.211713
     16          6           0        4.438887    0.503852    0.251161
     17          6           0        5.153767    1.572454    0.414502
     18         16           0        3.452028    2.075823   -0.076502
     19          1           0       -8.677135   -0.428819   -0.476026
     20          1           0       -8.037588   -1.420698    0.863542
     21          1           0       -7.602125   -1.810456   -0.821170
     22          1           0       -5.183957   -1.471052   -0.267023
     23          1           0       -5.722956   -1.154384    1.399304
     24          1           0       -4.766427    1.280934    1.092754
     25          1           0       -2.776416    2.076058    0.509322
     26          1           0       -1.547574    1.966653   -1.375905
     27          1           0       -0.075173    2.046111    0.584572
     28          1           0       -0.237089   -0.600759    0.566039
     29          1           0        1.200047    0.345410    1.057335
     30          1           0        1.899955    0.236744   -1.266898
     31          1           0        1.421974   -2.471692   -0.884189
     32          1           0        3.825124   -4.000809    0.063820
     33          1           0        6.016534   -2.281664    0.807632
     34          1           0        6.100687    2.060723    0.524989
 ---------------------------------------------------------------------

 SCF Done:  E(RB3LYP) =  -1192.30404750     A.U. after    1 cycles

 The electronic state is 1-A.
 Alpha  occ. eigenvalues --  -88.84557 -19.14294 -14.41082 -14.38855 -14.37616
 Alpha  occ. eigenvalues --  -14.36105 -14.35766 -14.34889 -10.25900 -10.23395
 Alpha  occ. eigenvalues --  -10.23232 -10.22645 -10.21737 -10.21563 -10.21498
 Alpha  occ. eigenvalues --  -10.19757 -10.18847 -10.18238  -7.90719  -5.87291
 Alpha  occ. eigenvalues --   -5.86851  -5.86173  -1.04300  -1.03559  -1.02081
 Alpha  occ. eigenvalues --   -0.95996  -0.89129  -0.85677  -0.83434  -0.81262
 Alpha  occ. eigenvalues --   -0.75449  -0.71081  -0.68993  -0.65322  -0.64637
 Alpha  occ. eigenvalues --   -0.63167  -0.59510  -0.58660  -0.57389  -0.56786
 Alpha  occ. eigenvalues --   -0.54416  -0.53933  -0.52844  -0.52136  -0.49529
 Alpha  occ. eigenvalues --   -0.48355  -0.47028  -0.46888  -0.45301  -0.44577
 Alpha  occ. eigenvalues --   -0.42549  -0.41561  -0.40324  -0.39788  -0.39159
 Alpha  occ. eigenvalues --   -0.38720  -0.37173  -0.36372  -0.33881  -0.32434
 Alpha  occ. eigenvalues --   -0.32088  -0.30084  -0.28136  -0.27596  -0.26290
 Alpha  occ. eigenvalues --   -0.25961  -0.25354  -0.24873  -0.23200  -0.19597
 Alpha  occ. eigenvalues --   -0.14198
 Alpha virt. eigenvalues --   -0.05403   0.00017   0.01716   0.02736   0.05655
 Alpha virt. eigenvalues --    0.07045   0.07137   0.09220   0.09976   0.11204
 Alpha virt. eigenvalues --    0.11439   0.13119   0.13235   0.13895   0.14325

 Mulliken charges:
               1
     1  C   -0.222434
     2  O   -0.235652
     3  C   -0.114714
     4  C    0.005506
     5  N   -0.074372
     6  N   -0.239391
     7  N   -0.225212
     8  N   -0.269957
     9  C   -0.042857
    10  N   -0.271316
    11  N   -0.384166
    12  C    0.281306
    13  C   -0.199972
    14  C   -0.157726
    15  C    0.111457
    16  C    0.266790
    17  C   -0.380147
    18  S   -0.327140
    19  H    0.128378
    20  H    0.102877
    21  H    0.106722
    22  H    0.108716
    23  H    0.091408
    24  H    0.081858
    25  H    0.218740
    26  H    0.241568
    27  H    0.225692
    28  H    0.113888
    29  H    0.121102
    30  H    0.260337
    31  H    0.274395
    32  H    0.121885
    33  H    0.127887
    34  H    0.154543
 Sum of Mulliken charges =  -0.00000

 Dipole moment (field-independent basis, Debye):
    X=             -2.1630    Y=             -2.7579    Z=              1.3804  Tot=              3.7669
 Quadrupole moment (field-independent basis, Debye-Ang):
   XX=            -99.2076   YY=            -99.3160   ZZ=           -115.6473
   XY=            -10.7045   XZ=             -1.4652   YZ=              1.7835

  Exact polarizability: 261.531  19.473 210.138  11.674   4.061 107.643
 Approx polarizability: 359.038  59.074 374.927  31.760  17.556 181.833

                      1                      2                      3
                      A                      A                      A
 Frequencies --     11.7381                17.0677                34.8510
 Red. masses --      5.5910                 5.3857                 4.9930
 Frc consts  --      0.0005                 0.0009                 0.0036
 IR Inten    --      1.0491                 0.2175                 0.9054

                      4                      5                      6
                      A                      A                      A
 Frequencies --     40.5003                49.1836                76.0306
 Red. masses --      3.7855                 3.7210                 3.8567
 Frc consts  --      0.0037                 0.0053                 0.0131
 IR Inten    --      1.7227                 0.1639                 1.6419

                      7                      8                      9
                      A                      A                      A
 Frequencies --     82.4915                99.9241               117.3102
 Red. masses --      3.6005                 5.4568                 7.9749
 Frc consts  --      0.0144                 0.0321                 0.0647
 IR Inten    --      1.4484                 0.1331                 0.2619

                     10                     11                     12
                      A                      A                      A
 Frequencies --    124.0517               138.5086               154.0438
 Red. masses --      3.4749                 3.8999                 4.0145
 Frc consts  --      0.0315                 0.0441                 0.0561
 IR Inten    --      5.7030                 7.2307                 7.3857

                     13                     14                     15
                      A                      A                      A
 Frequencies --    184.0376               205.6716               223.0660
 Red. masses --      2.6149                 2.6047                 4.4184
 Frc consts  --      0.0522                 0.0649                 0.1295
 IR Inten    --     35.4788                 9.4011                 1.7447

                     16                     17                     18
                      A                      A                      A
 Frequencies --    235.3484               256.0102               263.0367
 Red. masses --      1.4111                 3.0085                 2.8771
 Frc consts  --      0.0460                 0.1162                 0.1173
 IR Inten    --      8.2590                16.1610                 3.4132

                     19                     20                     21
                      A                      A                      A
 Frequencies --    265.8838               323.0759               348.1161
 Red. masses --      1.7549                 3.0260                 3.5625
 Frc consts  --      0.0731                 0.1861                 0.2544
 IR Inten    --     43.0053                13.1896                 2.5299

                     22                     23                     24
                      A                      A                      A
 Frequencies --    378.3205               387.0218               430.9701
 Red. masses --      4.4209                 4.9605                 3.1774
 Frc consts  --      0.3728                 0.4378                 0.3477
 IR Inten    --      3.1608                 1.8552                 4.2335

                     25                     26                     27
                      A                      A                      A
 Frequencies --    479.7018               483.1682               500.0240
 Red. masses --      2.6593                 3.9891                 1.3913
 Frc consts  --      0.3605                 0.5487                 0.2050
 IR Inten    --     45.6493                 4.5404                67.2020

                     28                     29                     30
                      A                      A                      A
 Frequencies --    515.4619               550.6951               581.8694
 Red. masses --      4.1992                 3.7853                 1.3403
 Frc consts  --      0.6574                 0.6764                 0.2674
 IR Inten    --     17.7141                 1.4998                61.6080

                     31                     32                     33
                      A                      A                      A
 Frequencies --    588.6231               590.0910               646.2003
 Red. masses --      2.6730                 2.8647                 2.7005
 Frc consts  --      0.5457                 0.5877                 0.6644
 IR Inten    --      7.3010               124.7312                45.6725

                     34                     35                     36
                      A                      A                      A
 Frequencies --    653.6316               696.7704               721.9720
 Red. masses --      3.1395                 6.3890                 6.1788
 Frc consts  --      0.7903                 1.8275                 1.8976
 IR Inten    --     14.9147                 2.7781                16.6624

                     37                     38                     39
                      A                      A                      A
 Frequencies --    745.3813               771.4456               837.7379
 Red. masses --      3.4635                 2.4964                 1.6076
 Frc consts  --      1.1338                 0.8753                 0.6647
 IR Inten    --     17.3596                23.6227                76.6056

                     40                     41                     42
                      A                      A                      A
 Frequencies --    864.4922               868.3664               905.3047
 Red. masses --      1.3556                 1.9020                 1.5252
 Frc consts  --      0.5969                 0.8450                 0.7365
 IR Inten    --      3.5066               101.2026                 1.0411

                     43                     44                     45
                      A                      A                      A
 Frequencies --    945.5325               971.6422               982.9950
 Red. masses --      1.1866                 4.9332                 3.1427
 Frc consts  --      0.6250                 2.7441                 1.7892
 IR Inten    --     15.3766                18.3504                28.8476

                     46                     47                     48
                      A                      A                      A
 Frequencies --    995.2434              1010.6857              1049.5506
 Red. masses --      2.4269                 1.8826                 1.3775
 Frc consts  --      1.4163                 1.1330                 0.8940
 IR Inten    --     10.5673                25.4658                 8.3551

                     49                     50                     51
                      A                      A                      A
 Frequencies --   1072.1323              1091.3831              1101.9719
 Red. masses --      2.7612                 2.5261                 3.4251
 Frc consts  --      1.8700                 1.7728                 2.4505
 IR Inten    --      3.8181               106.7286               119.5525

                     52                     53                     54
                      A                      A                      A
 Frequencies --   1130.4108              1133.9641              1149.3170
 Red. masses --      3.3377                 3.8079                 3.2459
 Frc consts  --      2.5129                 2.8849                 2.5262
 IR Inten    --    163.1808                 5.7956                89.0357

                     55                     56                     57
                      A                      A                      A
 Frequencies --   1167.7865              1186.5414              1201.7914
 Red. masses --      2.5421                 1.4240                 2.8095
 Frc consts  --      2.0425                 1.1812                 2.3908
 IR Inten    --     59.5047                12.6703                 7.2837

                     58                     59                     60
                      A                      A                      A
 Frequencies --   1205.2293              1224.5499              1233.5386
 Red. masses --      2.7291                 1.5518                 1.6584
 Frc consts  --      2.3357                 1.3710                 1.4868
 IR Inten    --      6.7596                37.4455                11.8758

                     61                     62                     63
                      A                      A                      A
 Frequencies --   1251.2929              1301.3507              1340.7322
 Red. masses --      1.1862                 1.2179                 1.2711
 Frc consts  --      1.0942                 1.2152                 1.3462
 IR Inten    --     10.9556                 1.9646                35.5007

                     64                     65                     66
                      A                      A                      A
 Frequencies --   1357.1081              1408.0765              1413.3256
 Red. masses --      2.7942                 1.2981                 1.3765
 Frc consts  --      3.0321                 1.5164                 1.6199
 IR Inten    --     20.9751                52.9111                 2.0194

                     67                     68                     69
                      A                      A                      A
 Frequencies --   1464.9069              1478.2761              1483.9109
 Red. masses --      1.1679                 1.1609                 1.4088
 Frc consts  --      1.4767                 1.4947                 1.8277
 IR Inten    --      7.4422                 4.2752                40.5187

                     70                     71                     72
                      A                      A                      A
 Frequencies --   1485.3221              1495.2197              1498.1485
 Red. masses --      1.0628                 1.0962                 1.0701
 Frc consts  --      1.3815                 1.4440                 1.4152
 IR Inten    --      3.1919                12.5485                 6.4862

                     73                     74                     75
                      A                      A                      A
 Frequencies --   1518.3756              1520.9275              1530.6077
 Red. masses --      1.0866                 1.1732                 1.2554
 Frc consts  --      1.4760                 1.5990                 1.7328
 IR Inten    --      6.2075                17.3588                 5.6423

                     76                     77                     78
                      A                      A                      A
 Frequencies --   1534.3551              1589.0468              1664.9436
 Red. masses --      1.2673                 4.5568                 9.4230
 Frc consts  --      1.7578                 6.7793                15.3900
 IR Inten    --      2.6311                41.5798               357.5306

                     79                     80                     81
                      A                      A                      A
 Frequencies --   1717.2521              1855.3503              2927.4056
 Red. masses --      7.9912                 8.9013                 1.0673
 Frc consts  --     13.8846                18.0532                 5.3890
 IR Inten    --     12.3677               301.3255                44.6988

                     82                     83                     84
                      A                      A                      A
 Frequencies --   2968.2301              3010.6338              3013.4635
 Red. masses --      1.0384                 1.0925                 1.0979
 Frc consts  --      5.3902                 5.8342                 5.8742
 IR Inten    --     78.8078                60.3150                14.5022

                     85                     86                     87
                      A                      A                      A
 Frequencies --   3013.9929              3028.6478              3063.4245
 Red. masses --      1.0551                 1.0872                 1.1092
 Frc consts  --      5.6469                 5.8758                 6.1329
 IR Inten    --     26.0253                51.2225                18.3345

                     88                     89                     90
                      A                      A                      A
 Frequencies --   3114.9846              3220.5701              3271.3270
 Red. masses --      1.0958                 1.0891                 1.1110
 Frc consts  --      6.2645                 6.6557                 7.0051
 IR Inten    --     31.3933                 9.4076                 1.7240

                     91                     92                     93
                      A                      A                      A
 Frequencies --   3338.7595              3359.2782              3439.8281
 Red. masses --      1.1117                 1.0731                 1.0752
 Frc consts  --      7.3013                 7.1348                 7.4955
 IR Inten    --     48.7028                10.5405                27.1891

                     94                     95                     96
                      A                      A                      A
 Frequencies --   3475.5642              3500.5570              3602.1163
 Red. masses --      1.0748                 1.0756                 1.0772
 Frc consts  --      7.6493                 7.7658                 8.2348
 IR Inten    --      2.1790                 0.7595               112.5864

 - Thermochemistry -
 -------------------
 Temperature   298.150 Kelvin.  Pressure   1.00000 Atm.
 Atom     1 has atomic number  6 and mass  12.00000

 Molecular mass:   268.11063 amu.
 Principal axes and moments of inertia in atomic units:
                           1         2         3
     Eigenvalues --  2154.87274********************
           X            1.00000   0.00245  -0.00047
           Y           -0.00244   0.99999   0.00203
           Z            0.00048  -0.00202   1.00000
 This molecule is an asymmetric top.
 Rotational symmetry number  1.
 Warning -- assumption of classical behavior for rotation
           may cause significant error
 Rotational temperatures (Kelvin)      0.04019     0.00528     0.00476
 Rotational constants (GHZ):           0.83752     0.11002     0.09919
 Zero-point vibrational energy     703157.6 (Joules/Mol)
                                  168.05871 (Kcal/Mol)
 Warning -- explicit consideration of  32 degrees of freedom as
           vibrations may cause significant error
 Vibrational temperatures:     16.89    24.56    50.14    58.27    70.76
          (Kelvin)            109.39   118.69   143.77   168.78   178.48
                              199.28   221.63   264.79   295.92   320.94
                              338.61   368.34   378.45   382.55   464.83
                              500.86   544.32   556.84   620.07   690.18
                              695.17   719.42   741.63   792.33   837.18
                              846.90   849.01   929.74   940.43  1002.50
                             1038.76  1072.44  1109.94  1205.32  1243.81
                             1249.39  1302.53  1360.41  1397.98  1414.31
                             1431.93  1454.15  1510.07  1542.56  1570.26
                             1585.49  1626.41  1631.52  1653.61  1680.18
                             1707.17  1729.11  1734.06  1761.85  1774.79
                             1800.33  1872.35  1929.01  1952.58  2025.91
                             2033.46  2107.67  2126.91  2135.02  2137.05
                             2151.29  2155.50  2184.60  2188.28  2202.20
                             2207.59  2286.28  2395.48  2470.74  2669.44
                             4211.88  4270.62  4331.63  4335.70  4336.46
                             4357.55  4407.58  4481.77  4633.68  4706.71
                             4803.73  4833.25  4949.15  5000.56  5036.52
                             5182.64

 Zero-point correction=                           0.267819 (Hartree/Particle)
 Thermal correction to Energy=                    0.288386
 Thermal correction to Enthalpy=                  0.289330
 Thermal correction to Gibbs Free Energy=         0.214408
 Sum of electronic and zero-point Energies=          -1192.036229
 Sum of electronic and thermal Energies=             -1192.015662
 Sum of electronic and thermal Enthalpies=           -1192.014717
 Sum of electronic and thermal Free Energies=        -1192.089640

                     E (Thermal)             CV                S
                      KCal/Mol        Cal/Mol-Kelvin    Cal/Mol-Kelvin
 Total                  180.965             72.872            157.687
 Electronic               0.000              0.000              0.000
 Translational            0.889              2.981             42.658
 Rotational               0.889              2.981             34.819
 Vibrational            179.187             66.910             80.211
 Vibration     1          0.593              1.987              7.693
 Vibration     2          0.593              1.986              6.949
 Vibration     3          0.594              1.983              5.532
 Vibration     4          0.594              1.981              5.234
 Vibration     5          0.595              1.978              4.850
 Vibration     6          0.599              1.965              3.991
 Vibration     7          0.600              1.961              3.831
 Vibration     8          0.604              1.949              3.456
 Vibration     9          0.608              1.935              3.144
 Vibration    10          0.610              1.929              3.036
 Vibration    11          0.614              1.915              2.824
 Vibration    12          0.620              1.898              2.622
 Vibration    13          0.631              1.862              2.287
 Vibration    14          0.640              1.832              2.082
 Vibration    15          0.649              1.806              1.934
 Vibration    16          0.655              1.787              1.838
 Vibration    17          0.666              1.753              1.689
 Vibration    18          0.670              1.741              1.642
 Vibration    19          0.672              1.736              1.623
 Vibration    20          0.708              1.629              1.294
 Vibration    21          0.726              1.579              1.175
 Vibration    22          0.749              1.516              1.046
 Vibration    23          0.755              1.498              1.012
 Vibration    24          0.792              1.403              0.855
 Vibration    25          0.836              1.295              0.711
 Vibration    26          0.839              1.287              0.702
 Vibration    27          0.855              1.250              0.658
 Vibration    28          0.870              1.216              0.621
 Vibration    29          0.906              1.138              0.543
 Vibration    30          0.939              1.071              0.482
 Vibration    31          0.946              1.056              0.470
 Vibration    32          0.947              1.053              0.467

 Optimization completed.
    -- Stationary point found.
 Normal termination of Gaussian 16 at Fri May 19 14:53:20 2023.
