 Gaussian 16, Revision A.03,
 Gaussian 16:  ES64L-G16RevA.03 25-Dec-2016

 -----------------------------
 # opt freq b3lyp/6-31g(2df,p)
 -----------------------------

 -------------------
 Title Card Required
 -------------------
 Symbolic Z-matrix:
 Charge =  0 Multiplicity = 1

 SCF Done:  E(RB3LYP) =  -727.807360784     A.U. after   25 cycles
 SCF Done:  E(RB3LYP) =  -727.885563890     A.U. after   16 cycles
 SCF Done:  E(RB3LYP) =  -727.964340175     A.U. after   16 cycles
 SCF Done:  E(RB3LYP) =  -728.023422187     A.U. after   15 cycles
 SCF Done:  E(RB3LYP) =  -728.088893078     A.U. after   15 cycles
 SCF Done:  E(RB3LYP) =  -728.097167551     A.U. after   13 cycles
 SCF Done:  E(RB3LYP) =  -728.099396759     A.U. after   13 cycles
 SCF Done:  E(RB3LYP) =  -728.099977052     A.U. after   12 cycles
 SCF Done:  E(RB3LYP) =  -728.100230513     A.U. after   12 cycles
 SCF Done:  E(RB3LYP) =  -728.100287044     A.U. after   11 cycles
 SCF Done:  E(RB3LYP) =  -728.100313653     A.U. after   10 cycles
 SCF Done:  E(RB3LYP) =  -728.100324663     A.U. after   10 cycles
 SCF Done:  E(RB3LYP) =  -728.100327280     A.U. after    9 cycles
 SCF Done:  E(RB3LYP) =  -728.100328275     A.U. after    8 cycles
 SCF Done:  E(RB3LYP) =  -728.100328616     A.U. after    8 cycles
 SCF Done:  E(RB3LYP) =  -728.100328717     A.U. after    7 cycles
 Optimization completed.
    -- Stationary point found.
 Normal termination of Gaussian 16 at Wed May 17 16:36:44 2023.

 ----------------------------------------------------------------------
 #N Geom=AllCheck Guess=TCheck SCRF=Check GenChk RB3LYP/6-31G(2df,p) Fr
 eq
 ----------------------------------------------------------------------

 Structure from the checkpoint file:  "COCC1dC2CdCOCqdCC2dOrCdCCdC1.chk"
 -------------------
 Title Card Required
 -------------------
 Charge =  0 Multiplicity = 1

                         Standard orientation:
 ---------------------------------------------------------------------
 Center     Atomic      Atomic             Coordinates (Angstroms)
 Number     Number       Type             X           Y           Z
 ---------------------------------------------------------------------
      1          6           0       -4.471389   -0.086155   -0.181639
      2          8           0       -3.239591    0.294442    0.385149
      3          6           0       -2.128218   -0.196282   -0.345636
      4          6           0       -0.870154    0.312065    0.332648
      5          6           0        0.108798   -0.545908    0.710376
      6          6           0        1.269555   -0.252154    1.577971
      7          6           0        2.556158   -0.206033    1.213909
      8          8           0        3.015073   -0.199509   -0.070489
      9          6           0        2.038189   -0.261927   -1.042908
     10          6           0        1.242490   -1.378322   -1.167340
     11          6           0        0.368151   -1.872115   -0.028094
     12          8           0       -0.164031   -2.938950    0.095877
     13          6           0        1.448419    0.988526   -1.422637
     14          6           0        1.489344    2.007921   -0.508301
     15          6           0        0.269338    2.560928    0.062588
     16          6           0       -0.780354    1.782547    0.442738
     17          1           0       -5.261775    0.335350    0.443989
     18          1           0       -4.585721   -1.180806   -0.211295
     19          1           0       -4.585140    0.298458   -1.207937
     20          1           0       -2.185942    0.168210   -1.388249
     21          1           0       -2.141199   -1.294704   -0.370770
     22          1           0        1.063930   -0.202348    2.643287
     23          1           0        3.375200   -0.129013    1.918231
     24          1           0        0.630448   -1.390804   -2.071111
     25          1           0        0.567724    0.898385   -2.050039
     26          1           0        2.418987    2.229524    0.011795
     27          1           0        0.241377    3.620073    0.316499
     28          1           0       -1.671467    2.281260    0.819258
 ---------------------------------------------------------------------

 SCF Done:  E(RB3LYP) =  -728.100328717     A.U. after    1 cycles

 The electronic state is 1-A.
 Alpha  occ. eigenvalues --  -19.19765 -19.14388 -19.13918 -10.28927 -10.27732
 Alpha  occ. eigenvalues --  -10.25689 -10.23332 -10.22596 -10.21500 -10.21227
 Alpha  occ. eigenvalues --  -10.21113 -10.20507 -10.20303 -10.20224 -10.20173
 Alpha  occ. eigenvalues --  -10.19695  -1.10203  -1.05126  -1.03572  -0.86160
 Alpha  occ. eigenvalues --   -0.82748  -0.80853  -0.77645  -0.73181  -0.70420
 Alpha  occ. eigenvalues --   -0.67859  -0.66314  -0.63153  -0.58414  -0.57394
 Alpha  occ. eigenvalues --   -0.53688  -0.52937  -0.51559  -0.50371  -0.48919
 Alpha  occ. eigenvalues --   -0.48063  -0.47800  -0.45885  -0.44812  -0.44535
 Alpha  occ. eigenvalues --   -0.43892  -0.41824  -0.40794  -0.40027  -0.39224
 Alpha  occ. eigenvalues --   -0.38493  -0.37453  -0.36678  -0.35995  -0.32611
 Alpha  occ. eigenvalues --   -0.31837  -0.29959  -0.26370  -0.25878  -0.25000
 Alpha  occ. eigenvalues --   -0.21901  -0.21793
 Alpha virt. eigenvalues --   -0.07524  -0.04530  -0.02319  -0.00246   0.02766
 Alpha virt. eigenvalues --    0.04735   0.07976   0.10219   0.11000   0.12188
 Alpha virt. eigenvalues --    0.13594   0.14887   0.15202   0.15470   0.15718

 Mulliken charges:
               1
     1  C   -0.225928
     2  O   -0.235324
     3  C   -0.163968
     4  C    0.156676
     5  C   -0.011318
     6  C   -0.233610
     7  C    0.037310
     8  O   -0.221990
     9  C    0.279656
    10  C   -0.282408
    11  C    0.314692
    12  O   -0.311284
    13  C   -0.158576
    14  C   -0.123559
    15  C   -0.081066
    16  C   -0.139844
    17  H    0.128230
    18  H    0.111430
    19  H    0.103038
    20  H    0.082138
    21  H    0.118064
    22  H    0.126551
    23  H    0.133097
    24  H    0.135717
    25  H    0.116579
    26  H    0.126677
    27  H    0.099809
    28  H    0.119215
 Sum of Mulliken charges =  -0.00000

 Dipole moment (field-independent basis, Debye):
    X=             -0.1267    Y=              2.9183    Z=             -0.3807  Tot=              2.9457
 Quadrupole moment (field-independent basis, Debye-Ang):
   XX=            -86.3112   YY=            -99.9749   ZZ=            -87.5319
   XY=              1.8521   XZ=              7.1362   YZ=              1.6568

  Exact polarizability: 169.159   1.420 163.502  -0.516   6.525 113.069
 Approx polarizability: 279.669   8.355 347.483 -20.526  21.629 204.600

                      1                      2                      3
                      A                      A                      A
 Frequencies --     38.9052                77.6724                81.7214
 Red. masses --      4.1830                 3.1373                 2.7322
 Frc consts  --      0.0037                 0.0112                 0.0108
 IR Inten    --      0.1916                 1.9709                 1.9258

                      4                      5                      6
                      A                      A                      A
 Frequencies --    103.1831               142.5811               171.7477
 Red. masses --      6.4590                 4.1201                 3.2086
 Frc consts  --      0.0405                 0.0493                 0.0558
 IR Inten    --      5.9425                 0.8351                 4.5340

                      7                      8                      9
                      A                      A                      A
 Frequencies --    205.0533               226.2691               229.6011
 Red. masses --      4.7684                 2.1370                 2.1864
 Frc consts  --      0.1181                 0.0645                 0.0679
 IR Inten    --      2.1942                 2.6532                 0.3834

                     10                     11                     12
                      A                      A                      A
 Frequencies --    249.2112               290.0330               327.9433
 Red. masses --      3.3137                 3.6681                 3.7966
 Frc consts  --      0.1213                 0.1818                 0.2406
 IR Inten    --      0.9161                 0.1616                 1.2444

                     13                     14                     15
                      A                      A                      A
 Frequencies --    336.6033               374.6478               402.2263
 Red. masses --      3.0138                 4.1589                 5.1903
 Frc consts  --      0.2012                 0.3439                 0.4947
 IR Inten    --      0.0272                 8.5792                 3.2926

                     16                     17                     18
                      A                      A                      A
 Frequencies --    413.3301               473.6306               505.9425
 Red. masses --      3.4637                 4.0361                 4.7952
 Frc consts  --      0.3486                 0.5334                 0.7232
 IR Inten    --      1.7415                 2.3972                 5.5703

                     19                     20                     21
                      A                      A                      A
 Frequencies --    530.6757               559.5829               609.4167
 Red. masses --      3.9550                 4.0393                 4.0073
 Frc consts  --      0.6562                 0.7452                 0.8769
 IR Inten    --      8.4655                 6.5841                 1.3486

                     22                     23                     24
                      A                      A                      A
 Frequencies --    626.9476               664.9936               719.1437
 Red. masses --      6.5825                 4.0918                 3.4196
 Frc consts  --      1.5244                 1.0661                 1.0420
 IR Inten    --      8.4436                27.7459                15.5170

                     25                     26                     27
                      A                      A                      A
 Frequencies --    739.4483               745.4999               779.6051
 Red. masses --      1.9935                 2.0594                 2.8032
 Frc consts  --      0.6422                 0.6743                 1.0038
 IR Inten    --      9.6448                 3.4255                44.2820

                     28                     29                     30
                      A                      A                      A
 Frequencies --    798.5234               809.8010               848.7995
 Red. masses --      2.1180                 1.9236                 2.7595
 Frc consts  --      0.7957                 0.7432                 1.1713
 IR Inten    --     25.2950                36.6847                27.8289

                     31                     32                     33
                      A                      A                      A
 Frequencies --    875.2113               886.2389               917.1919
 Red. masses --      3.8284                 6.0312                 1.9775
 Frc consts  --      1.7278                 2.7910                 0.9802
 IR Inten    --     66.4965                17.6901                12.8754

                     34                     35                     36
                      A                      A                      A
 Frequencies --    935.9079               956.4277               968.0878
 Red. masses --      1.4161                 2.4468                 3.7794
 Frc consts  --      0.7308                 1.3187                 2.0869
 IR Inten    --      3.8568                23.3392                 9.8882

                     37                     38                     39
                      A                      A                      A
 Frequencies --    995.3805              1000.1811              1035.2126
 Red. masses --      2.4476                 1.5463                 3.5936
 Frc consts  --      1.4288                 0.9114                 2.2690
 IR Inten    --     25.8920                17.9938                21.2728

                     40                     41                     42
                      A                      A                      A
 Frequencies --   1051.4229              1061.8816              1125.4346
 Red. masses --      2.4343                 2.1279                 3.1238
 Frc consts  --      1.5856                 1.4137                 2.3312
 IR Inten    --      2.9657                 2.8826                39.6391

                     43                     44                     45
                      A                      A                      A
 Frequencies --   1149.9919              1177.2521              1181.9664
 Red. masses --      6.2002                 1.6214                 1.3958
 Frc consts  --      4.8311                 1.3240                 1.1489
 IR Inten    --    213.8661                21.1058                 0.1189

                     46                     47                     48
                      A                      A                      A
 Frequencies --   1195.6469              1213.5653              1235.7673
 Red. masses --      1.8628                 1.2691                 1.6344
 Frc consts  --      1.5690                 1.1012                 1.4706
 IR Inten    --      5.1914                27.0102                 7.9114

                     49                     50                     51
                      A                      A                      A
 Frequencies --   1271.1371              1273.8174              1276.7837
 Red. masses --      1.4404                 1.4494                 1.2891
 Frc consts  --      1.3713                 1.3856                 1.2381
 IR Inten    --     14.9187                 7.8450                26.0215

                     52                     53                     54
                      A                      A                      A
 Frequencies --   1300.9807              1338.1100              1402.7365
 Red. masses --      2.1853                 1.3217                 1.5033
 Frc consts  --      2.1792                 1.3944                 1.7428
 IR Inten    --     44.1640                 4.4402                 9.1004

                     55                     56                     57
                      A                      A                      A
 Frequencies --   1411.0476              1422.5914              1478.1781
 Red. masses --      1.4107                 1.4921                 1.1994
 Frc consts  --      1.6549                 1.7792                 1.5441
 IR Inten    --     18.6005                32.4866                 9.9130

                     58                     59                     60
                      A                      A                      A
 Frequencies --   1484.3867              1485.1151              1502.2238
 Red. masses --      1.3204                 2.3722                 1.0638
 Frc consts  --      1.7141                 3.0827                 1.4145
 IR Inten    --     13.1335                60.6749                 9.2816

                     61                     62                     63
                      A                      A                      A
 Frequencies --   1524.3501              1545.1165              1593.6808
 Red. masses --      1.0823                 4.4827                 5.8291
 Frc consts  --      1.4818                 6.3053                 8.7228
 IR Inten    --      2.4813                10.3332                 1.3610

                     64                     65                     66
                      A                      A                      A
 Frequencies --   1621.7413              1682.1656              1817.7577
 Red. masses --      7.7218                 7.7154                12.8480
 Frc consts  --     11.9655                12.8632                25.0125
 IR Inten    --      2.1213                42.2749               499.9811

                     67                     68                     69
                      A                      A                      A
 Frequencies --   2923.5715              2970.4354              3016.2704
 Red. masses --      1.0677                 1.0381                 1.1012
 Frc consts  --      5.3769                 5.3965                 5.9026
 IR Inten    --     37.6957                78.0631                60.0040

                     70                     71                     72
                      A                      A                      A
 Frequencies --   3025.0838              3114.4484              3115.2167
 Red. masses --      1.0912                 1.0841                 1.0962
 Frc consts  --      5.8835                 6.1956                 6.2678
 IR Inten    --      8.1004                 0.2757                29.1959

                     73                     74                     75
                      A                      A                      A
 Frequencies --   3124.1562              3147.4896              3153.5100
 Red. masses --      1.0833                 1.0858                 1.0906
 Frc consts  --      6.2297                 6.3374                 6.3903
 IR Inten    --     16.4573                 6.2539                21.0357

                     76                     77                     78
                      A                      A                      A
 Frequencies --   3166.4019              3175.6403              3218.4885
 Red. masses --      1.0859                 1.0882                 1.0953
 Frc consts  --      6.4146                 6.4657                 6.6845
 IR Inten    --      1.1479                 4.9177                 9.3422

 - Thermochemistry -
 -------------------
 Temperature   298.150 Kelvin.  Pressure   1.00000 Atm.
 Atom     1 has atomic number  6 and mass  12.00000

 Molecular mass:   216.07864 amu.
 Principal axes and moments of inertia in atomic units:
                           1         2         3
     Eigenvalues --  2003.329563887.300534875.19066
           X            0.99980   0.01058   0.01689
           Y           -0.01080   0.99986   0.01309
           Z           -0.01674  -0.01327   0.99977
 This molecule is an asymmetric top.
 Rotational symmetry number  1.
 Warning -- assumption of classical behavior for rotation
           may cause significant error
 Rotational temperatures (Kelvin)      0.04323     0.02228     0.01777
 Rotational constants (GHZ):           0.90087     0.46427     0.37019
 Zero-point vibrational energy     571983.3 (Joules/Mol)
                                  136.70729 (Kcal/Mol)
 Warning -- explicit consideration of  21 degrees of freedom as
           vibrations may cause significant error
 Vibrational temperatures:     55.98   111.75   117.58   148.46   205.14
          (Kelvin)            247.11   295.03   325.55   330.34   358.56
                              417.29   471.84   484.30   539.03   578.71
                              594.69   681.45   727.94   763.52   805.11
                              876.81   902.04   956.78  1034.69  1063.90
                             1072.61  1121.68  1148.90  1165.12  1221.23
                             1259.23  1275.10  1319.63  1346.56  1376.09
                             1392.86  1432.13  1439.04  1489.44  1512.76
                             1527.81  1619.25  1654.58  1693.80  1700.59
                             1720.27  1746.05  1777.99  1828.88  1832.74
                             1837.01  1871.82  1925.24  2018.22  2030.18
                             2046.79  2126.77  2135.70  2136.75  2161.37
                             2193.20  2223.08  2292.95  2333.32  2420.26
                             2615.35  4206.37  4273.79  4339.74  4352.42
                             4481.00  4482.10  4494.96  4528.54  4537.20
                             4555.75  4569.04  4630.69

 Zero-point correction=                           0.217857 (Hartree/Particle)
 Thermal correction to Energy=                    0.231890
 Thermal correction to Enthalpy=                  0.232834
 Thermal correction to Gibbs Free Energy=         0.177103
 Sum of electronic and zero-point Energies=           -727.882472
 Sum of electronic and thermal Energies=              -727.868439
 Sum of electronic and thermal Enthalpies=            -727.867495
 Sum of electronic and thermal Free Energies=         -727.923226

                     E (Thermal)             CV                S
                      KCal/Mol        Cal/Mol-Kelvin    Cal/Mol-Kelvin
 Total                  145.513             54.477            117.296
 Electronic               0.000              0.000              0.000
 Translational            0.889              2.981             42.015
 Rotational               0.889              2.981             32.007
 Vibrational            143.736             48.516             43.274
 Vibration     1          0.594              1.981              5.314
 Vibration     2          0.599              1.964              3.949
 Vibration     3          0.600              1.962              3.849
 Vibration     4          0.605              1.947              3.393
 Vibration     5          0.616              1.911              2.769
 Vibration     6          0.626              1.877              2.416
 Vibration     7          0.640              1.833              2.087
 Vibration     8          0.650              1.801              1.908
 Vibration     9          0.652              1.796              1.882
 Vibration    10          0.662              1.764              1.736
 Vibration    11          0.686              1.692              1.474
 Vibration    12          0.711              1.620              1.270
 Vibration    13          0.717              1.602              1.228
 Vibration    14          0.746              1.524              1.061
 Vibration    15          0.768              1.465              0.955
 Vibration    16          0.777              1.441              0.915
 Vibration    17          0.830              1.309              0.727
 Vibration    18          0.861              1.237              0.643
 Vibration    19          0.886              1.182              0.586
 Vibration    20          0.915              1.119              0.525
 Vibration    21          0.968              1.012              0.434

                           ! Non-Optimized Parameters !
 Normal termination of Gaussian 16 at Wed May 17 19:18:40 2023.
