 Gaussian 16, Revision A.03,
 Gaussian 16:  ES64L-G16RevA.03 25-Dec-2016

 -----------------------------
 # opt freq b3lyp/6-31g(2df,p)
 -----------------------------

 -------------------
 Title Card Required
 -------------------
 Symbolic Z-matrix:
 Charge =  0 Multiplicity = 1

 SCF Done:  E(RB3LYP) =  -1163.05331329     A.U. after   16 cycles
 SCF Done:  E(RB3LYP) =  -1163.06268003     A.U. after   12 cycles
 SCF Done:  E(RB3LYP) =  -1163.06440911     A.U. after   13 cycles
 SCF Done:  E(RB3LYP) =  -1163.06522446     A.U. after   12 cycles
 SCF Done:  E(RB3LYP) =  -1163.06607106     A.U. after   12 cycles
 SCF Done:  E(RB3LYP) =  -1163.06822282     A.U. after   13 cycles
 SCF Done:  E(RB3LYP) =  -1163.06962411     A.U. after   12 cycles
 SCF Done:  E(RB3LYP) =  -1163.07287991     A.U. after   12 cycles
 SCF Done:  E(RB3LYP) =  -1163.07724582     A.U. after   13 cycles
 SCF Done:  E(RB3LYP) =  -1163.08106147     A.U. after   13 cycles
 SCF Done:  E(RB3LYP) =  -1163.08742139     A.U. after   10 cycles
 SCF Done:  E(RB3LYP) =  -1163.08742701     A.U. after   11 cycles
 SCF Done:  E(RB3LYP) =  -1163.08743688     A.U. after   10 cycles
 SCF Done:  E(RB3LYP) =  -1163.08744459     A.U. after   11 cycles
 SCF Done:  E(RB3LYP) =  -1163.08744925     A.U. after    9 cycles
 SCF Done:  E(RB3LYP) =  -1163.08745113     A.U. after   10 cycles
 SCF Done:  E(RB3LYP) =  -1163.08745154     A.U. after    8 cycles
 SCF Done:  E(RB3LYP) =  -1163.08745170     A.U. after    8 cycles
 SCF Done:  E(RB3LYP) =  -1163.08745172     A.U. after    6 cycles
 Optimization completed.
    -- Stationary point found.
 Normal termination of Gaussian 16 at Thu May 18 22:19:16 2023.

 ----------------------------------------------------------------------
 #N Geom=AllCheck Guess=TCheck SCRF=Check GenChk RB3LYP/6-31G(2df,p) Fr
 eq
 ----------------------------------------------------------------------

 Structure from the checkpoint file:  "COCqNrdCOCdCCdCC1dCqNrCdCSCdC1.chk"
 -------------------
 Title Card Required
 -------------------
 Charge =  0 Multiplicity = 1

                         Standard orientation:
 ---------------------------------------------------------------------
 Center     Atomic      Atomic             Coordinates (Angstroms)
 Number     Number       Type             X           Y           Z
 ---------------------------------------------------------------------
      1          6           0       -7.838737    0.551695   -0.115623
      2          8           0       -6.649722    0.486367   -0.907311
      3          6           0       -5.612056   -0.195859   -0.346763
      4          7           0       -5.849890   -1.545728   -0.072871
      5          6           0       -4.472569    0.450818   -0.079771
      6          8           0       -3.394625   -0.253506    0.429572
      7          6           0       -2.153395    0.193964    0.114197
      8          6           0       -1.049244   -0.346548    0.653940
      9          6           0        0.284424    0.093478    0.329064
     10          6           0        1.407996   -0.480873    0.824809
     11          6           0        2.811314   -0.177829    0.563205
     12          6           0        3.275660    1.097631    0.300171
     13          7           0        2.408235    2.182804    0.247298
     14          6           0        4.678219    1.476012    0.155233
     15          6           0        5.679601    0.813238   -0.439232
     16         16           0        5.509017   -0.767823   -1.218130
     17          6           0        4.828897   -1.663628    0.161212
     18          6           0        3.702756   -1.313636    0.792727
     19          1           0       -8.576556    1.085990   -0.716696
     20          1           0       -7.652330    1.103693    0.814174
     21          1           0       -8.214405   -0.445598    0.132335
     22          1           0       -6.254521   -2.032079   -0.865847
     23          1           0       -5.010695   -2.014023    0.245884
     24          1           0       -4.368515    1.522389   -0.186857
     25          1           0       -2.118355    1.009058   -0.605632
     26          1           0       -1.168183   -1.161538    1.364022
     27          1           0        0.361498    0.897140   -0.398873
     28          1           0        1.257623   -1.344029    1.474913
     29          1           0        1.548769    2.078353    0.773077
     30          1           0        2.845817    3.083588    0.373453
     31          1           0        4.926107    2.452014    0.575748
     32          1           0        6.678829    1.239006   -0.448675
     33          1           0        5.409852   -2.519859    0.488168
     34          1           0        3.379965   -1.982142    1.592804
 ---------------------------------------------------------------------

 SCF Done:  E(RB3LYP) =  -1163.08745172     A.U. after    1 cycles

 The electronic state is 1-A.
 Alpha  occ. eigenvalues --  -88.86863 -19.18526 -19.16264 -14.33928 -14.33634
 Alpha  occ. eigenvalues --  -10.25884 -10.23763 -10.23237 -10.23105 -10.21614
 Alpha  occ. eigenvalues --  -10.21039 -10.19535 -10.19428 -10.18604 -10.18568
 Alpha  occ. eigenvalues --  -10.18339 -10.18115 -10.17660  -7.93035  -5.89530
 Alpha  occ. eigenvalues --   -5.89169  -5.88603  -1.07982  -1.06115  -0.92334
 Alpha  occ. eigenvalues --   -0.90157  -0.82941  -0.80902  -0.78196  -0.75888
 Alpha  occ. eigenvalues --   -0.74797  -0.71957  -0.68574  -0.66164  -0.63771
 Alpha  occ. eigenvalues --   -0.59323  -0.57810  -0.57096  -0.54759  -0.53145
 Alpha  occ. eigenvalues --   -0.52631  -0.52268  -0.49440  -0.48390  -0.47623
 Alpha  occ. eigenvalues --   -0.47377  -0.46240  -0.44911  -0.44792  -0.43957
 Alpha  occ. eigenvalues --   -0.43203  -0.42247  -0.40272  -0.39019  -0.38513
 Alpha  occ. eigenvalues --   -0.37094  -0.36441  -0.35668  -0.34907  -0.34127
 Alpha  occ. eigenvalues --   -0.32629  -0.32407  -0.31172  -0.28534  -0.27885
 Alpha  occ. eigenvalues --   -0.26936  -0.23689  -0.21760  -0.19601  -0.16823
 Alpha virt. eigenvalues --   -0.04779   0.00256   0.01618   0.04848   0.05857
 Alpha virt. eigenvalues --    0.07794   0.08289   0.08580   0.09293   0.10325
 Alpha virt. eigenvalues --    0.10695   0.11720   0.12512   0.13243   0.14044

 Mulliken charges:
               1
     1  C   -0.240830
     2  O   -0.250677
     3  C    0.271239
     4  N   -0.560422
     5  C   -0.065459
     6  O   -0.215443
     7  C    0.074070
     8  C   -0.179610
     9  C   -0.119179
    10  C   -0.182112
    11  C    0.171690
    12  C    0.243327
    13  N   -0.574138
    14  C   -0.117763
    15  C   -0.118034
    16  S   -0.163198
    17  C   -0.145925
    18  C   -0.113766
    19  H    0.131544
    20  H    0.119545
    21  H    0.130288
    22  H    0.248525
    23  H    0.258343
    24  H    0.111643
    25  H    0.103852
    26  H    0.088491
    27  H    0.105071
    28  H    0.079114
    29  H    0.247836
    30  H    0.244145
    31  H    0.090710
    32  H    0.118335
    33  H    0.112588
    34  H    0.096197
 Sum of Mulliken charges =  -0.00000

 Dipole moment (field-independent basis, Debye):
    X=             -2.7479    Y=              1.5712    Z=              1.7582  Tot=              3.6209
 Quadrupole moment (field-independent basis, Debye-Ang):
   XX=           -101.6379   YY=            -98.6001   ZZ=           -116.9004
   XY=             11.3886   XZ=              9.3401   YZ=              1.0786

  Exact polarizability: 422.080   3.883 175.900  -6.418  -7.030 115.682
 Approx polarizability: 545.476   8.174 307.637 -12.909 -16.863 199.446

                      1                      2                      3
                      A                      A                      A
 Frequencies --     12.3655                20.1533                33.1139
 Red. masses --      3.8345                 5.4613                 4.9283
 Frc consts  --      0.0003                 0.0013                 0.0032
 IR Inten    --      1.1348                 0.3612                 0.2189

                      4                      5                      6
                      A                      A                      A
 Frequencies --     48.2076                76.4878                90.3152
 Red. masses --      5.8335                 3.0075                 4.4342
 Frc consts  --      0.0080                 0.0104                 0.0213
 IR Inten    --      1.4619                 1.1483                 0.1431

                      7                      8                      9
                      A                      A                      A
 Frequencies --    102.1286               123.5342               135.4350
 Red. masses --      2.6756                 4.2488                 1.5000
 Frc consts  --      0.0164                 0.0382                 0.0162
 IR Inten    --      0.8723                 0.9709                 0.4920

                     10                     11                     12
                      A                      A                      A
 Frequencies --    139.3943               184.7280               202.1226
 Red. masses --      2.1682                 4.7364                 5.5080
 Frc consts  --      0.0248                 0.0952                 0.1326
 IR Inten    --      0.1659                 0.8655                 0.3979

                     13                     14                     15
                      A                      A                      A
 Frequencies --    222.8787               263.5652               282.6949
 Red. masses --      3.8334                 3.4229                 3.3203
 Frc consts  --      0.1122                 0.1401                 0.1563
 IR Inten    --      2.7823                 7.7064                14.4610

                     16                     17                     18
                      A                      A                      A
 Frequencies --    311.8123               313.6403               335.4784
 Red. masses --      3.6931                 2.3678                 2.2199
 Frc consts  --      0.2116                 0.1372                 0.1472
 IR Inten    --     10.3746                 9.1903                24.6826

                     19                     20                     21
                      A                      A                      A
 Frequencies --    343.3373               358.7594               390.6791
 Red. masses --      2.0432                 3.7178                 3.6477
 Frc consts  --      0.1419                 0.2819                 0.3280
 IR Inten    --     36.4461                 0.6437                12.0978

                     22                     23                     24
                      A                      A                      A
 Frequencies --    427.9125               438.0748               446.9679
 Red. masses --      4.0615                 2.5227                 1.6547
 Frc consts  --      0.4382                 0.2852                 0.1948
 IR Inten    --     11.1623                12.9519                17.9479

                     25                     26                     27
                      A                      A                      A
 Frequencies --    479.8922               511.4057               518.8134
 Red. masses --      3.4994                 3.7809                 4.0907
 Frc consts  --      0.4748                 0.5826                 0.6487
 IR Inten    --      9.7735                 3.1009                 3.3070

                     28                     29                     30
                      A                      A                      A
 Frequencies --    558.1204               594.0504               612.7339
 Red. masses --      2.9882                 2.0301                 2.3407
 Frc consts  --      0.5484                 0.4221                 0.5178
 IR Inten    --     35.3726                54.8245               181.0370

                     31                     32                     33
                      A                      A                      A
 Frequencies --    647.4798               654.7329               673.5580
 Red. masses --      2.0028                 2.2501                 5.6410
 Frc consts  --      0.4947                 0.5683                 1.5078
 IR Inten    --     46.0321                42.2657                10.8335

                     34                     35                     36
                      A                      A                      A
 Frequencies --    697.9612               709.9409               754.0836
 Red. masses --      3.4295                 4.9845                 1.5704
 Frc consts  --      0.9843                 1.4802                 0.5261
 IR Inten    --     11.0577                11.6221                28.6787

                     37                     38                     39
                      A                      A                      A
 Frequencies --    756.2359               785.1405               803.6249
 Red. masses --      1.7052                 2.4624                 3.2324
 Frc consts  --      0.5746                 0.8943                 1.2299
 IR Inten    --     16.2954                21.5979                51.9525

                     40                     41                     42
                      A                      A                      A
 Frequencies --    810.5162               825.9554               843.9025
 Red. masses --      1.7278                 3.5060                 1.8956
 Frc consts  --      0.6688                 1.4092                 0.7954
 IR Inten    --    234.7830                 7.8172                 4.7059

                     43                     44                     45
                      A                      A                      A
 Frequencies --    896.9660               902.0568               946.7703
 Red. masses --      1.9795                 3.6371                 1.1794
 Frc consts  --      0.9383                 1.7437                 0.6229
 IR Inten    --      5.5980                13.2763                 6.1462

                     46                     47                     48
                      A                      A                      A
 Frequencies --    949.3299               963.0870              1024.5620
 Red. masses --      1.2957                 1.3160                 5.2295
 Frc consts  --      0.6880                 0.7192                 3.2344
 IR Inten    --     32.8912                 1.8774                60.3569

                     49                     50                     51
                      A                      A                      A
 Frequencies --   1034.3172              1040.3705              1107.9907
 Red. masses --      1.1675                 1.7112                 5.3359
 Frc consts  --      0.7359                 1.0913                 3.8595
 IR Inten    --     43.7742                15.2349               125.3805

                     52                     53                     54
                      A                      A                      A
 Frequencies --   1146.5518              1152.0878              1177.4027
 Red. masses --      2.2269                 1.7427                 1.2993
 Frc consts  --      1.7248                 1.3628                 1.0612
 IR Inten    --     62.3288                81.8313                 8.7467

                     55                     56                     57
                      A                      A                      A
 Frequencies --   1188.8705              1189.6357              1210.6130
 Red. masses --      1.4329                 2.4378                 1.4418
 Frc consts  --      1.1933                 2.0327                 1.2450
 IR Inten    --      2.4047               292.5086                30.1718

                     58                     59                     60
                      A                      A                      A
 Frequencies --   1221.9030              1234.2103              1258.5524
 Red. masses --      1.2574                 2.0731                 1.4209
 Frc consts  --      1.1061                 1.8606                 1.3261
 IR Inten    --    143.1750               278.2325                 1.1861

                     61                     62                     63
                      A                      A                      A
 Frequencies --   1277.4440              1302.3005              1309.1941
 Red. masses --      1.9736                 1.8058                 1.8670
 Frc consts  --      1.8976                 1.8044                 1.8854
 IR Inten    --     47.5363               559.8839               167.6338

                     64                     65                     66
                      A                      A                      A
 Frequencies --   1328.6032              1349.2502              1363.2185
 Red. masses --      1.4762                 1.3568                 1.5584
 Frc consts  --      1.5353                 1.4553                 1.7063
 IR Inten    --    149.8934                26.0985                25.6577

                     67                     68                     69
                      A                      A                      A
 Frequencies --   1369.6701              1382.9389              1405.2607
 Red. masses --      1.7518                 1.5396                 2.0225
 Frc consts  --      1.9363                 1.7348                 2.3532
 IR Inten    --     29.1743                13.3541                18.4919

                     70                     71                     72
                      A                      A                      A
 Frequencies --   1480.3838              1482.8759              1508.0242
 Red. masses --      1.2163                 1.0714                 1.0518
 Frc consts  --      1.5705                 1.3881                 1.4093
 IR Inten    --      8.2948                 5.5183                10.9355

                     73                     74                     75
                      A                      A                      A
 Frequencies --   1571.8688              1625.2269              1641.3658
 Red. masses --      6.0227                 1.1565                 1.2398
 Frc consts  --      8.7674                 1.7998                 1.9680
 IR Inten    --     31.7736                52.7870                55.8995

                     76                     77                     78
                      A                      A                      A
 Frequencies --   1645.1164              1657.4871              1667.0286
 Red. masses --      5.5061                 5.3469                 5.9360
 Frc consts  --      8.7799                 8.6547                 9.7193
 IR Inten    --     33.0811                93.3749                 3.1456

                     79                     80                     81
                      A                      A                      A
 Frequencies --   1701.9116              1775.3800              3019.0400
 Red. masses --      5.1507                 7.0404                 1.0356
 Frc consts  --      8.7901                13.0746                 5.5612
 IR Inten    --    484.9809                96.2421                71.6822

                     82                     83                     84
                      A                      A                      A
 Frequencies --   3092.6839              3103.1969              3105.8428
 Red. masses --      1.0996                 1.0846                 1.0839
 Frc consts  --      6.1969                 6.1540                 6.1602
 IR Inten    --     33.9607                 1.5062                32.0502

                     85                     86                     87
                      A                      A                      A
 Frequencies --   3111.7442              3137.9898              3149.8219
 Red. masses --      1.0847                 1.1035                 1.0897
 Frc consts  --      6.1883                 6.4019                 6.3697
 IR Inten    --     28.5302                24.5199                20.2798

                     88                     89                     90
                      A                      A                      A
 Frequencies --   3154.4388              3163.5361              3166.0488
 Red. masses --      1.0895                 1.0867                 1.0926
 Frc consts  --      6.3872                 6.4080                 6.4529
 IR Inten    --      0.6520                35.4053                16.4793

                     91                     92                     93
                      A                      A                      A
 Frequencies --   3175.8867              3213.9996              3514.0554
 Red. masses --      1.0929                 1.0923                 1.0488
 Frc consts  --      6.4945                 6.6480                 7.6309
 IR Inten    --     14.9110                42.4870                 7.7902

                     94                     95                     96
                      A                      A                      A
 Frequencies --   3516.5294              3621.3917              3646.1539
 Red. masses --      1.0489                 1.0939                 1.0962
 Frc consts  --      7.6425                 8.4522                 8.5867
 IR Inten    --     13.7167                11.1459                22.0700

 - Thermochemistry -
 -------------------
 Temperature   298.150 Kelvin.  Pressure   1.00000 Atm.
 Atom     1 has atomic number  6 and mass  12.00000

 Molecular mass:   264.09325 amu.
 Principal axes and moments of inertia in atomic units:
                           1         2         3
     Eigenvalues --  1410.35698********************
           X            0.99999   0.00222   0.00264
           Y           -0.00216   0.99974  -0.02279
           Z           -0.00269   0.02278   0.99974
 This molecule is an asymmetric top.
 Rotational symmetry number  1.
 Warning -- assumption of classical behavior for rotation
           may cause significant error
 Rotational temperatures (Kelvin)      0.06141     0.00425     0.00412
 Rotational constants (GHZ):           1.27963     0.08853     0.08580
 Zero-point vibrational energy     711324.2 (Joules/Mol)
                                  170.01057 (Kcal/Mol)
 Warning -- explicit consideration of  30 degrees of freedom as
           vibrations may cause significant error
 Vibrational temperatures:     17.79    29.00    47.64    69.36   110.05
          (Kelvin)            129.94   146.94   177.74   194.86   200.56
                              265.78   290.81   320.67   379.21   406.73
                              448.63   451.26   482.68   493.99   516.17
                              562.10   615.67   630.29   643.09   690.46
                              735.80   746.46   803.01   854.71   881.59
                              931.58   942.01   969.10  1004.21  1021.45
                             1084.96  1088.05  1129.64  1156.24  1166.15
                             1188.37  1214.19  1290.53  1297.86  1362.19
                             1365.87  1385.67  1474.12  1488.15  1496.86
                             1594.15  1649.63  1657.60  1694.02  1710.52
                             1711.62  1741.80  1758.05  1775.75  1810.78
                             1837.96  1873.72  1883.64  1911.56  1941.27
                             1961.37  1970.65  1989.74  2021.86  2129.94
                             2133.53  2169.71  2261.57  2338.34  2361.56
                             2366.96  2384.75  2398.48  2448.67  2554.38
                             4343.73  4449.68  4464.81  4468.62  4477.11
                             4514.87  4531.89  4538.53  4551.62  4555.24
                             4569.39  4624.23  5055.94  5059.50  5210.37
                             5246.00

 Zero-point correction=                           0.270929 (Hartree/Particle)
 Thermal correction to Energy=                    0.290176
 Thermal correction to Enthalpy=                  0.291120
 Thermal correction to Gibbs Free Energy=         0.220213
 Sum of electronic and zero-point Energies=          -1162.816523
 Sum of electronic and thermal Energies=             -1162.797276
 Sum of electronic and thermal Enthalpies=           -1162.796332
 Sum of electronic and thermal Free Energies=        -1162.867239

                     E (Thermal)             CV                S
                      KCal/Mol        Cal/Mol-Kelvin    Cal/Mol-Kelvin
 Total                  182.088             71.257            149.237
 Electronic               0.000              0.000              0.000
 Translational            0.889              2.981             42.613
 Rotational               0.889              2.981             34.757
 Vibrational            180.311             65.295             71.867
 Vibration     1          0.593              1.987              7.589
 Vibration     2          0.593              1.986              6.619
 Vibration     3          0.594              1.983              5.634
 Vibration     4          0.595              1.978              4.890
 Vibration     5          0.599              1.965              3.979
 Vibration     6          0.602              1.956              3.653
 Vibration     7          0.604              1.947              3.413
 Vibration     8          0.610              1.929              3.044
 Vibration     9          0.613              1.918              2.867
 Vibration    10          0.615              1.914              2.812
 Vibration    11          0.631              1.861              2.280
 Vibration    12          0.639              1.837              2.114
 Vibration    13          0.649              1.806              1.936
 Vibration    14          0.670              1.740              1.638
 Vibration    15          0.682              1.706              1.517
 Vibration    16          0.700              1.651              1.353
 Vibration    17          0.701              1.648              1.343
 Vibration    18          0.717              1.605              1.234
 Vibration    19          0.722              1.589              1.197
 Vibration    20          0.734              1.557              1.127
 Vibration    21          0.758              1.490              0.998
 Vibration    22          0.789              1.409              0.866
 Vibration    23          0.798              1.387              0.833
 Vibration    24          0.806              1.368              0.805
 Vibration    25          0.836              1.295              0.710
 Vibration    26          0.867              1.225              0.630
 Vibration    27          0.874              1.208              0.613
 Vibration    28          0.914              1.122              0.528
 Vibration    29          0.952              1.044              0.460
 Vibration    30          0.972              1.005              0.428

 Optimization completed.
    -- Stationary point found.
 Normal termination of Gaussian 16 at Fri May 19 01:20:04 2023.
