 Gaussian 16, Revision A.03,
 Gaussian 16:  ES64L-G16RevA.03 25-Dec-2016

 -----------------------------
 # opt freq b3lyp/6-31g(2df,p)
 -----------------------------

 -------------------
 Title Card Required
 -------------------
 Symbolic Z-matrix:
 Charge =  0 Multiplicity = 1

 SCF Done:  E(RB3LYP) =  -663.421912794     A.U. after   27 cycles
 SCF Done:  E(RB3LYP) =  -663.504604165     A.U. after   19 cycles
 SCF Done:  E(RB3LYP) =  -663.595114872     A.U. after   17 cycles
 SCF Done:  E(RB3LYP) =  -663.658603938     A.U. after   17 cycles
 SCF Done:  E(RB3LYP) =  -663.714115128     A.U. after   16 cycles
 SCF Done:  E(RB3LYP) =  -663.739925090     A.U. after   16 cycles
 SCF Done:  E(RB3LYP) =  -663.710510052     A.U. after   17 cycles
 SCF Done:  E(RB3LYP) =  -663.754774446     A.U. after   15 cycles
 SCF Done:  E(RB3LYP) =  -663.768782561     A.U. after   15 cycles
 SCF Done:  E(RB3LYP) =  -663.776910771     A.U. after   15 cycles
 SCF Done:  E(RB3LYP) =  -663.784487248     A.U. after   13 cycles
 SCF Done:  E(RB3LYP) =  -663.784495995     A.U. after   12 cycles
 SCF Done:  E(RB3LYP) =  -663.784516994     A.U. after   12 cycles
 SCF Done:  E(RB3LYP) =  -663.784522211     A.U. after   11 cycles
 SCF Done:  E(RB3LYP) =  -663.784521622     A.U. after    9 cycles
 SCF Done:  E(RB3LYP) =  -663.784523544     A.U. after   10 cycles
 SCF Done:  E(RB3LYP) =  -663.784523786     A.U. after    8 cycles
 SCF Done:  E(RB3LYP) =  -663.784523888     A.U. after    8 cycles
 SCF Done:  E(RB3LYP) =  -663.784523909     A.U. after    7 cycles
 Optimization completed.
    -- Stationary point found.
 Normal termination of Gaussian 16 at Fri May 19 07:49:52 2023.

 ----------------------------------------------------------------------
 #N Geom=AllCheck Guess=TCheck SCRF=Check GenChk RB3LYP/6-31G(2df,p) Fr
 eq
 ----------------------------------------------------------------------

 Structure from the checkpoint file:  "CONC1dCdC2C3dNCdCCdCC1dNC23.chk"
 -------------------
 Title Card Required
 -------------------
 Charge =  0 Multiplicity = 1

                         Standard orientation:
 ---------------------------------------------------------------------
 Center     Atomic      Atomic             Coordinates (Angstroms)
 Number     Number       Type             X           Y           Z
 ---------------------------------------------------------------------
      1          6           0        4.117944    0.882710    0.179159
      2          8           0        3.429011   -0.352062    0.145278
      3          7           0        2.433742   -0.311255   -0.897822
      4          6           0        1.172871   -0.653208   -0.356696
      5          6           0        0.325235   -1.604335   -0.801553
      6          6           0       -0.880778   -1.838508   -0.087839
      7          6           0       -2.052605   -1.330388   -0.506451
      8          7           0       -3.065182   -0.689271   -0.653784
      9          6           0       -3.325180    0.623907   -0.192895
     10          6           0       -2.502115    1.663649    0.064055
     11          6           0       -1.124846    2.080544   -0.246832
     12          6           0        0.122020    1.594461   -0.054234
     13          6           0        0.444887    0.282399    0.485817
     14          7           0       -0.295740   -0.207309    1.501258
     15          6           0       -0.882682   -1.352906    1.321825
     16          1           0        4.884515    0.770929    0.951545
     17          1           0        3.453897    1.714652    0.448248
     18          1           0        4.598271    1.108334   -0.781620
     19          1           0        2.706172   -1.044764   -1.550387
     20          1           0       -4.384169    0.768087   -0.012671
     21          1           0       -3.079202    2.514580    0.430041
     22          1           0       -1.148258    3.049931   -0.748325
     23          1           0        0.936294    2.147519   -0.511986
     24          1           0       -1.397862   -1.847876    2.139240
 ---------------------------------------------------------------------

 SCF Done:  E(RB3LYP) =  -663.784523909     A.U. after    1 cycles

 The electronic state is 1-A.
 Alpha  occ. eigenvalues --  -19.16289 -14.38333 -14.37044 -14.34721 -10.28627
 Alpha  occ. eigenvalues --  -10.25428 -10.24998 -10.23994 -10.22371 -10.22004
 Alpha  occ. eigenvalues --  -10.21966 -10.21875 -10.21764 -10.21020 -10.17904
 Alpha  occ. eigenvalues --   -1.05950  -0.98822  -0.96585  -0.86412  -0.83656
 Alpha  occ. eigenvalues --   -0.80585  -0.78196  -0.74993  -0.67545  -0.66701
 Alpha  occ. eigenvalues --   -0.65468  -0.61540  -0.57265  -0.54171  -0.51973
 Alpha  occ. eigenvalues --   -0.51270  -0.50097  -0.48959  -0.47808  -0.46728
 Alpha  occ. eigenvalues --   -0.45581  -0.44483  -0.42477  -0.41409  -0.40683
 Alpha  occ. eigenvalues --   -0.40557  -0.37172  -0.36199  -0.34354  -0.31181
 Alpha  occ. eigenvalues --   -0.29644  -0.29623  -0.26921  -0.26011  -0.25765
 Alpha  occ. eigenvalues --   -0.21303  -0.20180
 Alpha virt. eigenvalues --   -0.08798  -0.05959  -0.02013   0.00014   0.02423
 Alpha virt. eigenvalues --    0.03820   0.06844   0.09239   0.10044   0.11636
 Alpha virt. eigenvalues --    0.12827   0.13820   0.14189   0.16140   0.16414

 Mulliken charges:
               1
     1  C   -0.204518
     2  O   -0.243064
     3  N   -0.329961
     4  C    0.293579
     5  C   -0.296216
     6  C   -0.140786
     7  C    0.400695
     8  N   -0.279338
     9  C   -0.052454
    10  C   -0.061112
    11  C   -0.096634
    12  C   -0.113266
    13  C    0.143188
    14  N   -0.175894
    15  C   -0.062309
    16  H    0.124951
    17  H    0.107808
    18  H    0.109653
    19  H    0.246417
    20  H    0.130659
    21  H    0.122785
    22  H    0.119828
    23  H    0.122193
    24  H    0.133797
 Sum of Mulliken charges =  -0.00000

 Dipole moment (field-independent basis, Debye):
    X=             -1.5172    Y=              2.4175    Z=              0.2204  Tot=              2.8626
 Quadrupole moment (field-independent basis, Debye-Ang):
   XX=            -75.1997   YY=            -80.8823   ZZ=            -88.0908
   XY=              0.0076   XZ=             -3.5472   YZ=             -3.3544

  Exact polarizability: 194.769  -1.464 143.153  -3.551   6.120  98.217
 Approx polarizability: 332.184   5.285 311.789   4.629  51.987 209.687

                      1                      2                      3
                      A                      A                      A
 Frequencies --     40.5780                56.2941                74.2662
 Red. masses --      2.8293                 3.9091                 3.8361
 Frc consts  --      0.0027                 0.0073                 0.0125
 IR Inten    --      2.2494                 0.3797                 2.8655

                      4                      5                      6
                      A                      A                      A
 Frequencies --    133.0191               145.7157               174.1052
 Red. masses --      3.7711                 5.4693                 4.1397
 Frc consts  --      0.0393                 0.0684                 0.0739
 IR Inten    --      0.8667                 2.7105                 0.8607

                      7                      8                      9
                      A                      A                      A
 Frequencies --    209.5136               214.4849               239.2687
 Red. masses --      4.7998                 1.8202                 3.0651
 Frc consts  --      0.1241                 0.0493                 0.1034
 IR Inten    --      3.0383                 3.6718                 3.1075

                     10                     11                     12
                      A                      A                      A
 Frequencies --    287.7535               347.3049               398.4456
 Red. masses --      4.1015                 5.4779                 3.5264
 Frc consts  --      0.2001                 0.3893                 0.3299
 IR Inten    --      4.1587                10.5180                 4.6636

                     13                     14                     15
                      A                      A                      A
 Frequencies --    406.5404               454.6947               478.3329
 Red. masses --      5.5826                 4.6370                 3.4472
 Frc consts  --      0.5436                 0.5648                 0.4647
 IR Inten    --      3.3665                15.2378                 5.6823

                     16                     17                     18
                      A                      A                      A
 Frequencies --    521.3140               542.5231               552.3305
 Red. masses --      6.5534                 7.0846                 5.6244
 Frc consts  --      1.0493                 1.2286                 1.0109
 IR Inten    --     74.7339                 9.6563                 4.4241

                     19                     20                     21
                      A                      A                      A
 Frequencies --    583.9852               613.3834               661.2903
 Red. masses --      7.4463                 8.8692                 3.8850
 Frc consts  --      1.4962                 1.9661                 1.0010
 IR Inten    --     15.9510                 4.4284                 7.2343

                     22                     23                     24
                      A                      A                      A
 Frequencies --    684.5533               725.3360               760.0664
 Red. masses --      4.6017                 2.4014                 5.3198
 Frc consts  --      1.2705                 0.7444                 1.8107
 IR Inten    --     17.6314                 4.4603                11.2364

                     25                     26                     27
                      A                      A                      A
 Frequencies --    775.7564               786.6764               835.8564
 Red. masses --      3.9747                 3.5421                 2.3048
 Frc consts  --      1.4093                 1.2915                 0.9488
 IR Inten    --      7.6484                26.2871                58.7487

                     28                     29                     30
                      A                      A                      A
 Frequencies --    836.5508               875.2813               882.5169
 Red. masses --      3.2047                 1.9844                 3.6995
 Frc consts  --      1.3214                 0.8957                 1.6976
 IR Inten    --    107.7286                38.3916                34.6580

                     31                     32                     33
                      A                      A                      A
 Frequencies --    908.8618               977.4145               984.9602
 Red. masses --      2.7917                 2.0423                 1.5210
 Frc consts  --      1.3587                 1.1496                 0.8694
 IR Inten    --     11.2588                37.5695                37.3177

                     34                     35                     36
                      A                      A                      A
 Frequencies --    995.6333              1018.1937              1077.0553
 Red. masses --      1.3977                 3.7796                 6.5068
 Frc consts  --      0.8163                 2.3086                 4.4473
 IR Inten    --     13.0177                15.3964                64.8564

                     37                     38                     39
                      A                      A                      A
 Frequencies --   1117.6451              1145.4677              1178.1615
 Red. masses --      2.6141                 5.5656                 1.2905
 Frc consts  --      1.9239                 4.3026                 1.0554
 IR Inten    --     10.2647                16.2776                 3.5191

                     40                     41                     42
                      A                      A                      A
 Frequencies --   1216.3464              1224.6562              1272.9730
 Red. masses --      1.5949                 2.1364                 2.1112
 Frc consts  --      1.3903                 1.8878                 2.0157
 IR Inten    --      5.7271                21.2503                10.3176

                     43                     44                     45
                      A                      A                      A
 Frequencies --   1289.1958              1307.4035              1365.4180
 Red. masses --      1.8667                 1.6143                 2.0089
 Frc consts  --      1.8280                 1.6257                 2.2066
 IR Inten    --     19.3296                 8.0265                15.9546

                     46                     47                     48
                      A                      A                      A
 Frequencies --   1381.7163              1417.5642              1437.1929
 Red. masses --      2.2488                 1.2337                 1.2286
 Frc consts  --      2.5295                 1.4606                 1.4952
 IR Inten    --     14.3767                 4.5519                 1.0081

                     49                     50                     51
                      A                      A                      A
 Frequencies --   1446.6124              1463.5216              1469.1182
 Red. masses --      1.4973                 1.1699                 8.1092
 Frc consts  --      1.8462                 1.4764                10.3120
 IR Inten    --      2.7656                 7.8970                13.6337

                     52                     53                     54
                      A                      A                      A
 Frequencies --   1474.7870              1507.5946              1590.9720
 Red. masses --      1.0611                 1.0570                 9.5121
 Frc consts  --      1.3597                 1.4155                14.1857
 IR Inten    --      2.9649                14.8654                42.7168

                     55                     56                     57
                      A                      A                      A
 Frequencies --   1619.6063              1634.9869              2053.1423
 Red. masses --      5.1094                 9.1200                11.9414
 Frc consts  --      7.8966                14.3639                29.6580
 IR Inten    --      6.0082                 0.5508               529.1542

                     58                     59                     60
                      A                      A                      A
 Frequencies --   2999.8804              3059.4325              3100.6747
 Red. masses --      1.0320                 1.1049                 1.0821
 Frc consts  --      5.4721                 6.0931                 6.1297
 IR Inten    --     55.8893                51.0202                 4.3668

                     61                     62                     63
                      A                      A                      A
 Frequencies --   3111.7410              3115.4425              3178.9539
 Red. masses --      1.1002                 1.0842                 1.0907
 Frc consts  --      6.2766                 6.2003                 6.4940
 IR Inten    --     27.5954                 5.2393                17.3154

                     64                     65                     66
                      A                      A                      A
 Frequencies --   3179.1160              3197.5982              3477.2107
 Red. masses --      1.0894                 1.0897                 1.0750
 Frc consts  --      6.4869                 6.5646                 7.6582
 IR Inten    --      2.7288                14.9923                 6.6086

 - Thermochemistry -
 -------------------
 Temperature   298.150 Kelvin.  Pressure   1.00000 Atm.
 Atom     1 has atomic number  6 and mass  12.00000

 Molecular mass:   199.07456 amu.
 Principal axes and moments of inertia in atomic units:
                           1         2         3
     Eigenvalues --  1384.457533978.916994672.79896
           X            0.99998   0.00289  -0.00593
           Y           -0.00301   0.99979  -0.02046
           Z            0.00587   0.02047   0.99977
 This molecule is an asymmetric top.
 Rotational symmetry number  1.
 Warning -- assumption of classical behavior for rotation
           may cause significant error
 Rotational temperatures (Kelvin)      0.06256     0.02177     0.01854
 Rotational constants (GHZ):           1.30357     0.45358     0.38622
 Zero-point vibrational energy     468302.0 (Joules/Mol)
                                  111.92688 (Kcal/Mol)
 Warning -- explicit consideration of  20 degrees of freedom as
           vibrations may cause significant error
 Vibrational temperatures:     58.38    80.99   106.85   191.38   209.65
          (Kelvin)            250.50   301.44   308.60   344.25   414.01
                              499.69   573.27   584.92   654.20   688.21
                              750.05   780.57   794.68   840.22   882.52
                              951.45   984.92  1043.60  1093.57  1116.14
                             1131.85  1202.61  1203.61  1259.33  1269.74
                             1307.65  1406.28  1417.14  1432.49  1464.95
                             1549.64  1608.04  1648.07  1695.11  1750.05
                             1762.01  1831.52  1854.87  1881.06  1964.53
                             1987.98  2039.56  2067.80  2081.35  2105.68
                             2113.73  2121.89  2169.09  2289.05  2330.25
                             2352.38  2954.01  4316.16  4401.84  4461.18
                             4477.10  4482.43  4573.81  4574.04  4600.63
                             5002.93

 Zero-point correction=                           0.178367 (Hartree/Particle)
 Thermal correction to Energy=                    0.191291
 Thermal correction to Enthalpy=                  0.192235
 Thermal correction to Gibbs Free Energy=         0.138460
 Sum of electronic and zero-point Energies=           -663.606157
 Sum of electronic and thermal Energies=              -663.593233
 Sum of electronic and thermal Enthalpies=            -663.592289
 Sum of electronic and thermal Free Energies=         -663.646063

                     E (Thermal)             CV                S
                      KCal/Mol        Cal/Mol-Kelvin    Cal/Mol-Kelvin
 Total                  120.037             49.198            113.179
 Electronic               0.000              0.000              0.000
 Translational            0.889              2.981             41.770
 Rotational               0.889              2.981             31.621
 Vibrational            118.260             43.236             39.788
 Vibration     1          0.594              1.981              5.231
 Vibration     2          0.596              1.975              4.583
 Vibration     3          0.599              1.966              4.037
 Vibration     4          0.613              1.920              2.902
 Vibration     5          0.617              1.907              2.727
 Vibration     6          0.627              1.874              2.391
 Vibration     7          0.642              1.826              2.048
 Vibration     8          0.644              1.819              2.005
 Vibration     9          0.657              1.780              1.808
 Vibration    10          0.685              1.696              1.487
 Vibration    11          0.725              1.581              1.178
 Vibration    12          0.765              1.473              0.968
 Vibration    13          0.771              1.456              0.939
 Vibration    14          0.813              1.351              0.782
 Vibration    15          0.835              1.298              0.715
 Vibration    16          0.876              1.203              0.607
 Vibration    17          0.898              1.156              0.560
 Vibration    18          0.908              1.135              0.539
 Vibration    19          0.941              1.066              0.478
 Vibration    20          0.973              1.004              0.427

 Optimization completed.
    -- Stationary point found.
 Normal termination of Gaussian 16 at Fri May 19 09:32:40 2023.
