 Gaussian 16, Revision A.03,
 Gaussian 16:  ES64L-G16RevA.03 25-Dec-2016

 -----------------------------
 # opt freq b3lyp/6-31g(2df,p)
 -----------------------------

 -------------------
 Title Card Required
 -------------------
 Symbolic Z-matrix:
 Charge =  0 Multiplicity = 1

 SCF Done:  E(RB3LYP) =  -1771.88288673     A.U. after   29 cycles
 SCF Done:  E(RB3LYP) =  -1771.91040025     A.U. after   18 cycles
 SCF Done:  E(RB3LYP) =  -1771.93905706     A.U. after   14 cycles
 SCF Done:  E(RB3LYP) =  -1771.95386082     A.U. after   14 cycles
 SCF Done:  E(RB3LYP) =  -1771.96727348     A.U. after   17 cycles
 SCF Done:  E(RB3LYP) =  -1771.97837133     A.U. after   16 cycles
 SCF Done:  E(RB3LYP) =  -1771.99057736     A.U. after   14 cycles
 SCF Done:  E(RB3LYP) =  -1772.00540454     A.U. after   16 cycles
 SCF Done:  E(RB3LYP) =  -1772.01239191     A.U. after   12 cycles
 SCF Done:  E(RB3LYP) =  -1772.01713763     A.U. after   12 cycles
 SCF Done:  E(RB3LYP) =  -1772.02846743     A.U. after   12 cycles
 SCF Done:  E(RB3LYP) =  -1772.02867776     A.U. after   11 cycles
 SCF Done:  E(RB3LYP) =  -1772.02863637     A.U. after   11 cycles
 SCF Done:  E(RB3LYP) =  -1772.02873650     A.U. after   11 cycles
 SCF Done:  E(RB3LYP) =  -1772.02875450     A.U. after    9 cycles
 SCF Done:  E(RB3LYP) =  -1772.02875709     A.U. after    8 cycles
 SCF Done:  E(RB3LYP) =  -1772.02875718     A.U. after    7 cycles
 SCF Done:  E(RB3LYP) =  -1772.02875807     A.U. after    9 cycles
 SCF Done:  E(RB3LYP) =  -1772.02875815     A.U. after    7 cycles
 Optimization completed.
    -- Stationary point found.

 The electronic state is 1-A.
 Alpha  occ. eigenvalues --  -88.94107 -88.86534 -88.84926 -14.36629 -14.35179
 Alpha  occ. eigenvalues --  -10.23950 -10.21284 -10.20940 -10.20191 -10.19968
 Alpha  occ. eigenvalues --  -10.18680 -10.18652 -10.18568 -10.18545 -10.18509
 Alpha  occ. eigenvalues --  -10.18377 -10.16559  -7.99785  -7.92763  -7.91206
 Alpha  occ. eigenvalues --   -5.96071  -5.96014  -5.95610  -5.89251  -5.88903
 Alpha  occ. eigenvalues --   -5.88308  -5.87679  -5.87331  -5.86770  -0.98201
 Alpha  occ. eigenvalues --   -0.84633  -0.83827  -0.80004  -0.79379  -0.78404
 Alpha  occ. eigenvalues --   -0.75604  -0.73831  -0.70248  -0.67341  -0.65515
 Alpha  occ. eigenvalues --   -0.63002  -0.60799  -0.56499  -0.56187  -0.53571
 Alpha  occ. eigenvalues --   -0.51535  -0.50577  -0.49591  -0.48882  -0.47226
 Alpha  occ. eigenvalues --   -0.45150  -0.44852  -0.44111  -0.43716  -0.42907
 Alpha  occ. eigenvalues --   -0.42102  -0.41567  -0.40977  -0.39672  -0.38969
 Alpha  occ. eigenvalues --   -0.37769  -0.36876  -0.35303  -0.34166  -0.33584
 Alpha  occ. eigenvalues --   -0.30680  -0.29870  -0.29371  -0.27579  -0.27054
 Alpha  occ. eigenvalues --   -0.26715  -0.25853  -0.23413  -0.20113  -0.19569
 Alpha  occ. eigenvalues --   -0.17396
 Alpha virt. eigenvalues --   -0.04205   0.01209   0.01670   0.02984   0.03953
 Alpha virt. eigenvalues --    0.05082   0.05747   0.06633   0.08194   0.08955
 Alpha virt. eigenvalues --    0.09352   0.10397   0.11241   0.11846   0.12187

 Mulliken charges:
               1
     1  C   -0.388061
     2  S   -0.163994
     3  C    0.141844
     4  C   -0.153931
     5  C   -0.124000
     6  C   -0.084424
     7  C   -0.086907
     8  C   -0.122051
     9  C   -0.154742
    10  C    0.127397
    11  S   -0.221739
    12  C   -0.238913
    13  C   -0.206813
    14  S    0.036082
    15  C   -0.189684
    16  N   -0.263347
    17  N   -0.464300
    18  H    0.141176
    19  H    0.145329
    20  H    0.163045
    21  H    0.113196
    22  H    0.096161
    23  H    0.095544
    24  H    0.094784
    25  H    0.093759
    26  H    0.112111
    27  H    0.129622
    28  H    0.146192
    29  H    0.094855
    30  H    0.141263
    31  H    0.123986
    32  H    0.131552
    33  H    0.249897
    34  H    0.257037
    35  H    0.228073
 Sum of Mulliken charges =  -0.00000

 Dipole moment (field-independent basis, Debye):
    X=             -1.6607    Y=              0.0018    Z=              1.2992  Tot=              2.1085
 Quadrupole moment (field-independent basis, Debye-Ang):
   XX=           -108.6966   YY=           -120.4338   ZZ=           -120.4621
   XY=              1.4373   XZ=             -4.3881   YZ=              4.1759

 Normal termination of Gaussian 16 at Tue May 16 16:20:21 2023.

 ----------------------------------------------------------------------
 #N Geom=AllCheck Guess=TCheck SCRF=Check GenChk RB3LYP/6-31G(2df,p) Fr
 eq
 ----------------------------------------------------------------------

 Structure from the checkpoint file:  "CSC1dCCdCCdCCdC1SCCd[SH]CNN.chk"
 -------------------
 Title Card Required
 -------------------
 Charge =  0 Multiplicity = 1

                         Standard orientation:
 ---------------------------------------------------------------------
 Center     Atomic      Atomic             Coordinates (Angstroms)
 Number     Number       Type             X           Y           Z
 ---------------------------------------------------------------------
      1          6           0        1.059246    2.978450    0.547223
      2         16           0        1.036269    2.046042   -1.018267
      3          6           0        1.977004    0.582923   -0.601623
      4          6           0        2.826251    0.116339   -1.530256
      5          6           0        3.653733   -1.094594   -1.452778
      6          6           0        4.577141   -1.352412   -0.515800
      7          6           0        4.894396   -0.534875    0.659900
      8          6           0        4.032915   -0.069941    1.576621
      9          6           0        2.593373   -0.353049    1.628585
     10          6           0        1.673044   -0.106601    0.680866
     11         16           0       -0.032630   -0.507264    1.030834
     12          6           0       -0.648844   -1.304124   -0.569039
     13          6           0       -1.997663   -1.892426   -0.395224
     14         16           0       -3.311074   -0.913542   -0.677697
     15          6           0       -4.376087   -0.410612    0.830450
     16          7           0       -5.656714    0.025934    0.360741
     17          7           0       -5.764450    1.384697   -0.041357
     18          1           0        0.525188    3.909925    0.346925
     19          1           0        2.082763    3.208042    0.848633
     20          1           0        0.542028    2.426818    1.333503
     21          1           0        2.917879    0.681495   -2.457912
     22          1           0        3.596519   -1.763998   -2.310841
     23          1           0        5.216585   -2.222701   -0.661397
     24          1           0        5.956414   -0.358792    0.828914
     25          1           0        4.444723    0.450053    2.441626
     26          1           0        2.245250   -0.809125    2.555408
     27          1           0        0.089268   -2.070542   -0.818517
     28          1           0       -0.629101   -0.527591   -1.336043
     29          1           0       -2.127556   -2.762249    0.238826
     30          1           0       -4.336545   -1.700513   -1.124341
     31          1           0       -3.778720    0.348307    1.357791
     32          1           0       -4.475519   -1.300608    1.457028
     33          1           0       -6.398759   -0.176566    1.018297
     34          1           0       -5.430153    1.458482   -0.997147
     35          1           0       -5.160224    1.976908    0.532082
 ---------------------------------------------------------------------

 SCF Done:  E(RB3LYP) =  -1772.02875815     A.U. after    1 cycles
