 Gaussian 16, Revision A.03,
 Gaussian 16:  ES64L-G16RevA.03 25-Dec-2016

 -----------------------------
 # opt freq b3lyp/6-31g(2df,p)
 -----------------------------

 -------------------
 Title Card Required
 -------------------
 Symbolic Z-matrix:
 Charge =  0 Multiplicity = 1

 SCF Done:  E(RB3LYP) =  -2661.85608417     A.U. after   16 cycles
 SCF Done:  E(RB3LYP) =  -2661.86929155     A.U. after   14 cycles
 SCF Done:  E(RB3LYP) =  -2661.87494916     A.U. after   13 cycles
 SCF Done:  E(RB3LYP) =  -2661.87708522     A.U. after   14 cycles
 SCF Done:  E(RB3LYP) =  -2661.87947020     A.U. after   14 cycles
 SCF Done:  E(RB3LYP) =  -2661.88087740     A.U. after   14 cycles
 SCF Done:  E(RB3LYP) =  -2661.88157019     A.U. after   13 cycles
 SCF Done:  E(RB3LYP) =  -2661.88177580     A.U. after   14 cycles
 SCF Done:  E(RB3LYP) =  -2661.88199188     A.U. after   12 cycles
 SCF Done:  E(RB3LYP) =  -2661.88206975     A.U. after   12 cycles
 SCF Done:  E(RB3LYP) =  -2661.88209933     A.U. after   11 cycles
 SCF Done:  E(RB3LYP) =  -2661.88211027     A.U. after    9 cycles
 SCF Done:  E(RB3LYP) =  -2661.88211310     A.U. after    9 cycles
 SCF Done:  E(RB3LYP) =  -2661.88211437     A.U. after    8 cycles
 SCF Done:  E(RB3LYP) =  -2661.88211486     A.U. after    8 cycles
 Optimization completed.
    -- Stationary point found.
 Normal termination of Gaussian 16 at Sat May 20 14:18:50 2023.

 ----------------------------------------------------------------------
 #N Geom=AllCheck Guess=TCheck SCRF=Check GenChk RB3LYP/6-31G(2df,p) Fr
 eq
 ----------------------------------------------------------------------

 Structure from the checkpoint file:  "CSC1CSSCCdCCqdSrS1dS.chk"
 -------------------
 Title Card Required
 -------------------
 Charge =  0 Multiplicity = 1

                         Standard orientation:
 ---------------------------------------------------------------------
 Center     Atomic      Atomic             Coordinates (Angstroms)
 Number     Number       Type             X           Y           Z
 ---------------------------------------------------------------------
      1          6           0        3.386058   -0.475359   -1.694071
      2         16           0        2.817832    1.062671   -0.904367
      3          6           0        1.108593    0.631689   -0.490885
      4          6           0        0.344633    1.917872   -0.213073
      5         16           0       -1.419119    1.840160    0.297858
      6         16           0       -2.535260    1.166508   -1.284101
      7          6           0       -2.790471   -0.702921   -1.032261
      8          6           0       -2.710440   -1.067270    0.400729
      9          6           0       -1.587147   -1.427027    1.048040
     10          6           0       -0.304873   -1.638806    0.401458
     11         16           0        0.074483   -2.693777   -0.776071
     12         16           0        1.138182   -0.602702    1.012724
     13         16           0        0.792396    0.365589    2.700637
     14          1           0        4.430123   -0.304985   -1.964015
     15          1           0        2.808879   -0.689178   -2.595860
     16          1           0        3.323658   -1.315267   -0.999883
     17          1           0        0.666270    0.043906   -1.295433
     18          1           0        0.427542    2.557744   -1.093939
     19          1           0        0.794015    2.442903    0.637455
     20          1           0       -2.064581   -1.223349   -1.650793
     21          1           0       -3.791667   -0.853888   -1.441627
     22          1           0       -3.589317   -0.853356    1.003118
     23          1           0       -1.579269   -1.448791    2.134459
 ---------------------------------------------------------------------

 SCF Done:  E(RB3LYP) =  -2661.88211486     A.U. after    1 cycles

 The electronic state is 1-A.
 Alpha  occ. eigenvalues --  -88.97396 -88.90662 -88.90587 -88.89803 -88.89076
 Alpha  occ. eigenvalues --  -88.84092 -10.29954 -10.27563 -10.24029 -10.23658
 Alpha  occ. eigenvalues --  -10.23022 -10.22633 -10.22521  -8.02766  -7.96804
 Alpha  occ. eigenvalues --   -7.96783  -7.96099  -7.95595  -7.90691  -5.99083
 Alpha  occ. eigenvalues --   -5.99025  -5.98538  -5.93315  -5.93289  -5.92939
 Alpha  occ. eigenvalues --   -5.92893  -5.92590  -5.92311  -5.92294  -5.92223
 Alpha  occ. eigenvalues --   -5.91890  -5.91858  -5.91626  -5.91137  -5.87347
 Alpha  occ. eigenvalues --   -5.86464  -5.86308  -0.89003  -0.85208  -0.83575
 Alpha  occ. eigenvalues --   -0.79951  -0.78105  -0.76022  -0.72844  -0.68052
 Alpha  occ. eigenvalues --   -0.64498  -0.63158  -0.60886  -0.57377  -0.52493
 Alpha  occ. eigenvalues --   -0.51633  -0.49209  -0.46751  -0.46076  -0.44676
 Alpha  occ. eigenvalues --   -0.44378  -0.43941  -0.41825  -0.41323  -0.40466
 Alpha  occ. eigenvalues --   -0.39609  -0.39233  -0.37661  -0.35461  -0.33795
 Alpha  occ. eigenvalues --   -0.33227  -0.32176  -0.28072  -0.26637  -0.26230
 Alpha  occ. eigenvalues --   -0.25334  -0.24984  -0.22806  -0.21206
 Alpha virt. eigenvalues --   -0.12071  -0.03923  -0.02530  -0.01368  -0.00838
 Alpha virt. eigenvalues --    0.01543   0.02224   0.02299   0.04268   0.06449
 Alpha virt. eigenvalues --    0.07981   0.09207   0.09641   0.11673   0.12145

 Mulliken charges:
               1
     1  C   -0.399002
     2  S   -0.083141
     3  C   -0.084150
     4  C   -0.231515
     5  S   -0.049399
     6  S   -0.087344
     7  C   -0.293686
     8  C   -0.011747
     9  C   -0.091958
    10  C    0.132208
    11  S   -0.255497
    12  S    0.262681
    13  S   -0.407790
    14  H    0.158295
    15  H    0.151876
    16  H    0.174673
    17  H    0.162677
    18  H    0.168374
    19  H    0.185098
    20  H    0.157887
    21  H    0.149834
    22  H    0.129936
    23  H    0.161690
 Sum of Mulliken charges =  -0.00000

 Dipole moment (field-independent basis, Debye):
    X=             -0.7458    Y=             -1.5615    Z=             -3.2012  Tot=              3.6390
 Quadrupole moment (field-independent basis, Debye-Ang):
   XX=           -112.7782   YY=           -124.1543   ZZ=           -125.2492
   XY=              3.1741   XZ=             -7.8913   YZ=             -0.6176

  Exact polarizability: 214.359   5.258 185.090   1.359  17.180 183.305
 Approx polarizability: 352.896   9.534 353.753  11.855  64.498 376.810

                      1                      2                      3
                      A                      A                      A
 Frequencies --     37.6093                60.3076                73.3031
 Red. masses --      5.5192                 7.7770                 6.5648
 Frc consts  --      0.0046                 0.0167                 0.0208
 IR Inten    --      0.2996                 1.0273                 0.0925

                      4                      5                      6
                      A                      A                      A
 Frequencies --     79.2667               109.3514               124.3616
 Red. masses --      4.5160                 8.9923                 9.7525
 Frc consts  --      0.0167                 0.0634                 0.0889
 IR Inten    --      3.4661                 2.2866                 1.0517

                      7                      8                      9
                      A                      A                      A
 Frequencies --    138.6801               163.2412               172.1656
 Red. masses --      3.8472                 2.0491                 2.4383
 Frc consts  --      0.0436                 0.0322                 0.0426
 IR Inten    --      2.0286                 1.6683                 1.6724

                     10                     11                     12
                      A                      A                      A
 Frequencies --    191.1303               194.9873               217.0737
 Red. masses --      4.5347                 5.6532                 3.2614
 Frc consts  --      0.0976                 0.1266                 0.0905
 IR Inten    --      1.4717                 0.4585                 0.8420

                     13                     14                     15
                      A                      A                      A
 Frequencies --    240.2169               264.7700               273.3557
 Red. masses --      7.8966                 5.6550                 6.6557
 Frc consts  --      0.2685                 0.2336                 0.2930
 IR Inten    --      0.6176                 3.5739                 0.5203

                     16                     17                     18
                      A                      A                      A
 Frequencies --    303.4804               328.2396               407.2979
 Red. masses --      4.4578                 6.5154                 4.7782
 Frc consts  --      0.2419                 0.4136                 0.4670
 IR Inten    --      3.3461                 1.6037                12.2217

                     19                     20                     21
                      A                      A                      A
 Frequencies --    421.1351               439.8908               471.1295
 Red. masses --      5.8913                 3.8189                 4.8313
 Frc consts  --      0.6156                 0.4354                 0.6318
 IR Inten    --     12.4616                 4.2513                 3.2800

                     22                     23                     24
                      A                      A                      A
 Frequencies --    498.1303               504.1011               595.6104
 Red. masses --      5.6048                11.1951                16.8192
 Frc consts  --      0.8194                 1.6762                 3.5155
 IR Inten    --      8.9864                 3.8977                77.3677

                     25                     26                     27
                      A                      A                      A
 Frequencies --    627.1725               678.9736               712.3516
 Red. masses --      5.3838                 6.4176                 3.7709
 Frc consts  --      1.2477                 1.7431                 1.1274
 IR Inten    --      0.6711                 7.0099                11.7651

                     28                     29                     30
                      A                      A                      A
 Frequencies --    717.0850               748.3057               770.0522
 Red. masses --      6.1190                 1.9922                 4.2946
 Frc consts  --      1.8538                 0.6573                 1.5004
 IR Inten    --      1.7162                13.0631                49.1579

                     31                     32                     33
                      A                      A                      A
 Frequencies --    833.7855               866.3379               919.0455
 Red. masses --      1.8287                 3.9048                 1.6999
 Frc consts  --      0.7490                 1.7267                 0.8460
 IR Inten    --     29.9559                69.4388                 8.2323

                     34                     35                     36
                      A                      A                      A
 Frequencies --    969.3740               973.4717               984.0939
 Red. masses --      1.1874                 1.4370                 1.4218
 Frc consts  --      0.6574                 0.8023                 0.8113
 IR Inten    --      2.1183                 2.2574                15.3522

                     37                     38                     39
                      A                      A                      A
 Frequencies --   1009.3758              1052.6932              1132.7219
 Red. masses --      1.9981                 2.9781                 1.1587
 Frc consts  --      1.1994                 1.9444                 0.8759
 IR Inten    --      8.1487                 3.5532                13.2058

                     40                     41                     42
                      A                      A                      A
 Frequencies --   1149.7915              1181.6375              1205.6393
 Red. masses --      1.1784                 1.1393                 1.3314
 Frc consts  --      0.9178                 0.9373                 1.1402
 IR Inten    --      6.4441                25.7367                14.1654

                     43                     44                     45
                      A                      A                      A
 Frequencies --   1236.7890              1244.1762              1278.6747
 Red. masses --      1.3143                 1.5787                 1.5499
 Frc consts  --      1.1845                 1.4398                 1.4931
 IR Inten    --     14.9324                18.3638                42.2772

                     46                     47                     48
                      A                      A                      A
 Frequencies --   1310.0853              1353.8146              1414.5549
 Red. masses --      1.2244                 1.1556                 1.5561
 Frc consts  --      1.2381                 1.2479                 1.8345
 IR Inten    --      3.5940                 2.6893                 8.3376

                     49                     50                     51
                      A                      A                      A
 Frequencies --   1421.9879              1462.5082              1473.4239
 Red. masses --      1.0831                 1.0508                 1.0530
 Frc consts  --      1.2903                 1.3243                 1.3468
 IR Inten    --     10.7070                 9.1543                16.4992

                     52                     53                     54
                      A                      A                      A
 Frequencies --   1483.4638              1638.7584              3050.5570
 Red. masses --      1.1400                 6.4765                 1.0290
 Frc consts  --      1.4781                10.2475                 5.6420
 IR Inten    --     10.9790                44.2502                10.2925

                     55                     56                     57
                      A                      A                      A
 Frequencies --   3053.8270              3088.7634              3109.5762
 Red. masses --      1.0598                 1.0638                 1.0883
 Frc consts  --      5.8233                 5.9797                 6.2002
 IR Inten    --      1.9447                 4.1724                 1.2523

                     58                     59                     60
                      A                      A                      A
 Frequencies --   3120.7510              3142.6935              3149.5123
 Red. masses --      1.0998                 1.1070                 1.1044
 Frc consts  --      6.3105                 6.4416                 6.4546
 IR Inten    --      1.3860                 4.1131                 2.7937

                     61                     62                     63
                      A                      A                      A
 Frequencies --   3158.6104              3171.2832              3181.3978
 Red. masses --      1.0852                 1.0950                 1.0964
 Frc consts  --      6.3791                 6.4885                 6.5380
 IR Inten    --      3.2363                 1.5713                 2.4054

 - Thermochemistry -
 -------------------
 Temperature   298.150 Kelvin.  Pressure   1.00000 Atm.
 Atom     1 has atomic number  6 and mass  12.00000

 Molecular mass:   285.91068 amu.
 Principal axes and moments of inertia in atomic units:
                           1         2         3
     Eigenvalues --  3724.302455308.414365752.27144
           X            0.99939   0.01487  -0.03163
           Y           -0.01448   0.99982   0.01244
           Z            0.03181  -0.01198   0.99942
 This molecule is an asymmetric top.
 Rotational symmetry number  1.
 Warning -- assumption of classical behavior for rotation
           may cause significant error
 Rotational temperatures (Kelvin)      0.02326     0.01632     0.01506
 Rotational constants (GHZ):           0.48459     0.33998     0.31374
 Zero-point vibrational energy     415020.2 (Joules/Mol)
                                   99.19220 (Kcal/Mol)
 Warning -- explicit consideration of  24 degrees of freedom as
           vibrations may cause significant error
 Vibrational temperatures:     54.11    86.77   105.47   114.05   157.33
          (Kelvin)            178.93   199.53   234.87   247.71   274.99
                              280.54   312.32   345.62   380.94   393.30
                              436.64   472.26   586.01   605.92   632.90
                              677.85   716.70   725.29   856.95   902.36
                              976.89  1024.92  1031.73  1076.64  1107.93
                             1199.63  1246.47  1322.30  1394.71  1400.61
                             1415.89  1452.27  1514.59  1629.73  1654.29
                             1700.11  1734.65  1779.46  1790.09  1839.73
                             1884.92  1947.84  2035.23  2045.92  2104.22
                             2119.93  2134.37  2357.81  4389.07  4393.78
                             4444.04  4473.99  4490.06  4521.63  4531.45
                             4544.54  4562.77  4577.32

 Zero-point correction=                           0.158073 (Hartree/Particle)
 Thermal correction to Energy=                    0.174259
 Thermal correction to Enthalpy=                  0.175203
 Thermal correction to Gibbs Free Energy=         0.113352
 Sum of electronic and zero-point Energies=          -2661.724042
 Sum of electronic and thermal Energies=             -2661.707856
 Sum of electronic and thermal Enthalpies=           -2661.706912
 Sum of electronic and thermal Free Energies=        -2661.768763

                     E (Thermal)             CV                S
                      KCal/Mol        Cal/Mol-Kelvin    Cal/Mol-Kelvin
 Total                  109.349             57.148            130.176
 Electronic               0.000              0.000              0.000
 Translational            0.889              2.981             42.849
 Rotational               0.889              2.981             33.097
 Vibrational            107.571             51.187             54.230
 Vibration     1          0.594              1.982              5.381
 Vibration     2          0.597              1.973              4.447
 Vibration     3          0.599              1.967              4.063
 Vibration     4          0.600              1.963              3.909
 Vibration     5          0.606              1.942              3.280
 Vibration     6          0.610              1.929              3.031
 Vibration     7          0.614              1.915              2.822
 Vibration     8          0.623              1.888              2.512
 Vibration     9          0.626              1.877              2.412
 Vibration    10          0.634              1.852              2.217
 Vibration    11          0.636              1.847              2.180
 Vibration    12          0.646              1.815              1.983
 Vibration    13          0.657              1.779              1.801
 Vibration    14          0.671              1.738              1.630
 Vibration    15          0.676              1.722              1.575
 Vibration    16          0.695              1.667              1.398
 Vibration    17          0.711              1.619              1.269
 Vibration    18          0.772              1.454              0.936
 Vibration    19          0.784              1.424              0.888
 Vibration    20          0.800              1.383              0.827
 Vibration    21          0.828              1.314              0.734
 Vibration    22          0.854              1.254              0.663
 Vibration    23          0.859              1.241              0.648
 Vibration    24          0.953              1.041              0.457

 Optimization completed.
    -- Stationary point found.
 Normal termination of Gaussian 16 at Sat May 20 15:41:02 2023.
