 Gaussian 16, Revision A.03,
 Gaussian 16:  ES64L-G16RevA.03 25-Dec-2016

 -----------------------------
 # opt freq b3lyp/6-31g(2df,p)
 -----------------------------

 -------------------
 Title Card Required
 -------------------
 Symbolic Z-matrix:
 Charge =  0 Multiplicity = 1

 SCF Done:  E(RB3LYP) =  -1941.51225355     A.U. after   31 cycles
 SCF Done:  E(RB3LYP) =  -1941.54173021     A.U. after   19 cycles
 SCF Done:  E(RB3LYP) =  -1941.56795687     A.U. after   16 cycles
 SCF Done:  E(RB3LYP) =  -1941.58407261     A.U. after   14 cycles
 SCF Done:  E(RB3LYP) =  -1941.60257294     A.U. after   15 cycles
 SCF Done:  E(RB3LYP) =  -1941.61409869     A.U. after   14 cycles
 SCF Done:  E(RB3LYP) =  -1941.61819491     A.U. after   14 cycles
 SCF Done:  E(RB3LYP) =  -1941.61911335     A.U. after   13 cycles
 SCF Done:  E(RB3LYP) =  -1941.61908691     A.U. after   13 cycles
 SCF Done:  E(RB3LYP) =  -1941.61955410     A.U. after   13 cycles
 SCF Done:  E(RB3LYP) =  -1941.61976082     A.U. after   12 cycles
 SCF Done:  E(RB3LYP) =  -1941.61989478     A.U. after   13 cycles
 SCF Done:  E(RB3LYP) =  -1941.61996175     A.U. after   12 cycles
 SCF Done:  E(RB3LYP) =  -1941.61999501     A.U. after   11 cycles
 SCF Done:  E(RB3LYP) =  -1941.62001016     A.U. after   11 cycles
 SCF Done:  E(RB3LYP) =  -1941.62001487     A.U. after   11 cycles
 SCF Done:  E(RB3LYP) =  -1941.62001560     A.U. after    8 cycles
 SCF Done:  E(RB3LYP) =  -1941.62001585     A.U. after    8 cycles
 SCF Done:  E(RB3LYP) =  -1941.62001590     A.U. after    7 cycles
 Optimization completed.
    -- Stationary point found.
 Normal termination of Gaussian 16 at Fri May 19 04:50:10 2023.

 ----------------------------------------------------------------------
 #N Geom=AllCheck Guess=TCheck SCRF=Check GenChk RB3LYP/6-31G(2df,p) Fr
 eq
 ----------------------------------------------------------------------

 Structure from the checkpoint file:  "CSC1dCCdCC1dCdCSCd[SH]S.chk"
 -------------------
 Title Card Required
 -------------------
 Charge =  0 Multiplicity = 1

                         Standard orientation:
 ---------------------------------------------------------------------
 Center     Atomic      Atomic             Coordinates (Angstroms)
 Number     Number       Type             X           Y           Z
 ---------------------------------------------------------------------
      1          6           0        2.355469    2.473854    0.558116
      2         16           0        3.038522    1.678462   -0.943367
      3          6           0        3.326941    0.038972   -0.381643
      4          6           0        4.531348   -0.579165   -0.274545
      5          6           0        4.335921   -1.969849    0.137211
      6          6           0        3.013548   -2.212163    0.287165
      7          6           0        2.289360   -0.975389   -0.047732
      8          6           0        0.983471   -0.816312   -0.093249
      9          6           0       -0.305059   -0.661699   -0.121522
     10         16           0       -1.246076   -0.198762    1.345062
     11          6           0       -2.462426    0.872815    0.714842
     12         16           0       -4.022106    0.290880    0.610561
     13         16           0       -4.995475   -0.498742   -1.400667
     14          1           0        2.146364    3.510536    0.284015
     15          1           0        3.085878    2.453500    1.368765
     16          1           0        1.429332    1.990505    0.872691
     17          1           0        5.489642   -0.114385   -0.463190
     18          1           0        5.138515   -2.676238    0.303481
     19          1           0        2.532323   -3.127578    0.597878
     20          1           0       -0.895484   -0.845487   -1.014846
     21          1           0       -2.173892    1.754884    0.153867
     22          1           0       -4.683897    1.448298    0.414282
     23          1           0       -4.878066   -1.769820   -0.974200
 ---------------------------------------------------------------------

 SCF Done:  E(RB3LYP) =  -1941.62001590     A.U. after    1 cycles

 The electronic state is 1-A.
 Alpha  occ. eigenvalues --  -88.97880 -88.91116 -88.87183 -88.86150 -10.24527
 Alpha  occ. eigenvalues --  -10.23357 -10.22408 -10.21600 -10.20916 -10.20558
 Alpha  occ. eigenvalues --  -10.19132 -10.19077 -10.18939  -8.03634  -7.97150
 Alpha  occ. eigenvalues --   -7.93344  -7.93006  -5.99932  -5.99822  -5.99406
 Alpha  occ. eigenvalues --   -5.93654  -5.93274  -5.92730  -5.89849  -5.89495
 Alpha  occ. eigenvalues --   -5.89306  -5.89145  -5.88879  -5.88555  -0.87786
 Alpha  occ. eigenvalues --   -0.86858  -0.81990  -0.78306  -0.76424  -0.71483
 Alpha  occ. eigenvalues --   -0.70963  -0.69110  -0.63579  -0.60800  -0.58525
 Alpha  occ. eigenvalues --   -0.54451  -0.51443  -0.50879  -0.49315  -0.45700
 Alpha  occ. eigenvalues --   -0.42802  -0.42738  -0.42560  -0.41535  -0.39930
 Alpha  occ. eigenvalues --   -0.39712  -0.39654  -0.38232  -0.36600  -0.35917
 Alpha  occ. eigenvalues --   -0.34632  -0.32483  -0.30945  -0.26787  -0.25178
 Alpha  occ. eigenvalues --   -0.25004  -0.23827  -0.21860  -0.20910
 Alpha virt. eigenvalues --   -0.08713  -0.07421  -0.01553  -0.00596   0.03363
 Alpha virt. eigenvalues --    0.04004   0.05061   0.05835   0.07502   0.08079
 Alpha virt. eigenvalues --    0.09092   0.10521   0.11265   0.12838   0.13960

 Mulliken charges:
               1
     1  C   -0.385911
     2  S   -0.181160
     3  C    0.105246
     4  C   -0.164429
     5  C   -0.104935
     6  C   -0.183466
     7  C   -0.047308
     8  C    0.363738
     9  C   -0.337842
    10  S   -0.073167
    11  C   -0.162111
    12  S    0.088915
    13  S   -0.386087
    14  H    0.143328
    15  H    0.146191
    16  H    0.159835
    17  H    0.118138
    18  H    0.107346
    19  H    0.109075
    20  H    0.168553
    21  H    0.152886
    22  H    0.194303
    23  H    0.168861
 Sum of Mulliken charges =  -0.00000

 Dipole moment (field-independent basis, Debye):
    X=             -0.5862    Y=              0.5287    Z=              1.9034  Tot=              2.0606
 Quadrupole moment (field-independent basis, Debye-Ang):
   XX=           -105.6326   YY=            -96.2694   ZZ=           -112.7435
   XY=             -9.3203   XZ=             -2.8791   YZ=              2.3709

  Exact polarizability: 360.503  -9.486 164.795  29.637   5.095 134.278
 Approx polarizability: 555.033  -5.315 278.531  80.374  26.953 264.911

                      1                      2                      3
                      A                      A                      A
 Frequencies --     15.1228                24.3201                39.5548
 Red. masses --      8.4139                 9.9635                 6.0064
 Frc consts  --      0.0011                 0.0035                 0.0055
 IR Inten    --      0.3587                 2.5972                 1.3599

                      4                      5                      6
                      A                      A                      A
 Frequencies --     46.9498                67.3163                85.7213
 Red. masses --      3.4641                 6.1166                 6.5446
 Frc consts  --      0.0045                 0.0163                 0.0283
 IR Inten    --      4.0773                 1.0084                 3.0645

                      7                      8                      9
                      A                      A                      A
 Frequencies --    136.9896               151.9306               161.5721
 Red. masses --      2.9356                 2.7190                 1.5339
 Frc consts  --      0.0325                 0.0370                 0.0236
 IR Inten    --      0.9825                 1.7568                 1.8130

                     10                     11                     12
                      A                      A                      A
 Frequencies --    169.2627               186.8638               194.9062
 Red. masses --      3.9368                 1.4660                 3.2202
 Frc consts  --      0.0665                 0.0302                 0.0721
 IR Inten    --      2.9081                 4.8989                47.6853

                     13                     14                     15
                      A                      A                      A
 Frequencies --    249.6165               272.3787               310.1626
 Red. masses --      8.3113                 4.6991                 8.3539
 Frc consts  --      0.3051                 0.2054                 0.4735
 IR Inten    --     40.5137                 7.0559                85.0659

                     16                     17                     18
                      A                      A                      A
 Frequencies --    333.2808               333.9614               420.1141
 Red. masses --      4.6332                 3.8773                 8.7281
 Frc consts  --      0.3032                 0.2548                 0.9076
 IR Inten    --     32.2480                 0.9264                 1.1258

                     19                     20                     21
                      A                      A                      A
 Frequencies --    468.9726               552.7896               577.0910
 Red. masses --      7.3820                 3.1816                 1.2315
 Frc consts  --      0.9566                 0.5728                 0.2416
 IR Inten    --      0.7666                 6.1291                59.4131

                     22                     23                     24
                      A                      A                      A
 Frequencies --    581.3335               642.7779               649.5159
 Red. masses --      5.1357                 4.2349                 1.4788
 Frc consts  --      1.0226                 1.0309                 0.3676
 IR Inten    --      1.0207                 7.6122                26.4462

                     25                     26                     27
                      A                      A                      A
 Frequencies --    672.9284               691.9574               711.2139
 Red. masses --      2.7832                 5.9432                 1.6575
 Frc consts  --      0.7426                 1.6766                 0.4940
 IR Inten    --      6.3985                 1.4558                29.0748

                     28                     29                     30
                      A                      A                      A
 Frequencies --    742.9226               774.1966               791.2894
 Red. masses --      3.6894                 1.8874                 1.3698
 Frc consts  --      1.1997                 0.6665                 0.5053
 IR Inten    --      2.1824                28.6787                24.9727

                     31                     32                     33
                      A                      A                      A
 Frequencies --    810.5804               812.1665               883.0986
 Red. masses --      1.7858                 5.7624                 1.3284
 Frc consts  --      0.6913                 2.2394                 0.6104
 IR Inten    --     16.7046                11.4390                 7.8545

                     34                     35                     36
                      A                      A                      A
 Frequencies --    933.6326               958.9983               962.4292
 Red. masses --      1.3529                 1.4485                 2.7843
 Frc consts  --      0.6948                 0.7849                 1.5195
 IR Inten    --      0.1394                41.9579                46.7949

                     37                     38                     39
                      A                      A                      A
 Frequencies --    971.7400               990.7423              1028.3785
 Red. masses --      1.9585                 1.4517                 1.1768
 Frc consts  --      1.0896                 0.8396                 0.7333
 IR Inten    --      5.8703                 8.2979                 7.4552

                     40                     41                     42
                      A                      A                      A
 Frequencies --   1035.1873              1113.9384              1159.6387
 Red. masses --      3.1516                 1.2036                 2.2000
 Frc consts  --      1.9898                 0.8799                 1.7431
 IR Inten    --     25.1656                15.5621                17.8281

                     43                     44                     45
                      A                      A                      A
 Frequencies --   1173.6256              1217.9313              1263.6521
 Red. masses --      1.4619                 1.2206                 1.8321
 Frc consts  --      1.1864                 1.0668                 1.7237
 IR Inten    --     10.0759                12.3582                 2.4137

                     46                     47                     48
                      A                      A                      A
 Frequencies --   1335.5207              1343.0249              1407.3060
 Red. masses --      2.3227                 1.1875                 3.8119
 Frc consts  --      2.4408                 1.2620                 4.4481
 IR Inten    --     29.3363                 4.3185                 3.6680

                     49                     50                     51
                      A                      A                      A
 Frequencies --   1464.2873              1482.3940              1514.0436
 Red. masses --      1.0570                 1.0555                 7.5756
 Frc consts  --      1.3353                 1.3666                10.2316
 IR Inten    --      5.4587                 4.9816                80.6102

                     52                     53                     54
                      A                      A                      A
 Frequencies --   1606.0671              2016.0817              2654.0938
 Red. masses --      5.4048                10.9617                 1.0388
 Frc consts  --      8.2140                26.2509                 4.3113
 IR Inten    --      1.9004               143.0164                 1.6699

                     55                     56                     57
                      A                      A                      A
 Frequencies --   2686.3809              3049.5042              3141.8998
 Red. masses --      1.0389                 1.0284                 1.1045
 Frc consts  --      4.4171                 5.6347                 6.4240
 IR Inten    --      4.8151                20.7285                 6.2395

                     58                     59                     60
                      A                      A                      A
 Frequencies --   3145.9998              3162.0397              3181.8900
 Red. masses --      1.1075                 1.0914                 1.0882
 Frc consts  --      6.4580                 6.4296                 6.4912
 IR Inten    --      6.7304                 3.7123                14.3037

                     61                     62                     63
                      A                      A                      A
 Frequencies --   3216.1630              3232.2668              3250.3722
 Red. masses --      1.0883                 1.0949                 1.1028
 Frc consts  --      6.6324                 6.7396                 6.8646
 IR Inten    --      6.5505                 4.1159                 9.1966

 - Thermochemistry -
 -------------------
 Temperature   298.150 Kelvin.  Pressure   1.00000 Atm.
 Atom     1 has atomic number  6 and mass  12.00000

 Molecular mass:   245.96654 amu.
 Principal axes and moments of inertia in atomic units:
                           1         2         3
     Eigenvalues --  1955.99464********************
           X            0.99999  -0.00239   0.00384
           Y            0.00224   0.99933   0.03652
           Z           -0.00393  -0.03651   0.99933
 This molecule is an asymmetric top.
 Rotational symmetry number  1.
 Warning -- assumption of classical behavior for rotation
           may cause significant error
 Rotational temperatures (Kelvin)      0.04428     0.00836     0.00786
 Rotational constants (GHZ):           0.92267     0.17426     0.16369
 Zero-point vibrational energy     414279.3 (Joules/Mol)
                                   99.01513 (Kcal/Mol)
 Warning -- explicit consideration of  22 degrees of freedom as
           vibrations may cause significant error
 Vibrational temperatures:     21.76    34.99    56.91    67.55    96.85
          (Kelvin)            123.33   197.10   218.59   232.47   243.53
                              268.86   280.43   359.14   391.89   446.25
                              479.52   480.50   604.45   674.75   795.34
                              830.31   836.41   924.81   934.51   968.19
                              995.57  1023.28  1068.90  1113.90  1138.49
                             1166.24  1168.53  1270.58  1343.29  1379.78
                             1384.72  1398.12  1425.46  1479.61  1489.40
                             1602.71  1668.46  1688.59  1752.33  1818.11
                             1921.52  1932.31  2024.80  2106.78  2132.83
                             2178.37  2310.77  2900.69  3818.65  3865.10
                             4387.56  4520.49  4526.39  4549.47  4578.03
                             4627.34  4650.51  4676.56

 Zero-point correction=                           0.157791 (Hartree/Particle)
 Thermal correction to Energy=                    0.174059
 Thermal correction to Enthalpy=                  0.175004
 Thermal correction to Gibbs Free Energy=         0.109902
 Sum of electronic and zero-point Energies=          -1941.462225
 Sum of electronic and thermal Energies=             -1941.445956
 Sum of electronic and thermal Enthalpies=           -1941.445012
 Sum of electronic and thermal Free Energies=        -1941.510114

                     E (Thermal)             CV                S
                      KCal/Mol        Cal/Mol-Kelvin    Cal/Mol-Kelvin
 Total                  109.224             56.338            137.018
 Electronic               0.000              0.000              0.000
 Translational            0.889              2.981             42.401
 Rotational               0.889              2.981             33.768
 Vibrational            107.446             50.377             60.850
 Vibration     1          0.593              1.986              7.189
 Vibration     2          0.593              1.985              6.246
 Vibration     3          0.594              1.981              5.281
 Vibration     4          0.595              1.979              4.942
 Vibration     5          0.598              1.970              4.230
 Vibration     6          0.601              1.959              3.755
 Vibration     7          0.614              1.916              2.845
 Vibration     8          0.619              1.901              2.648
 Vibration     9          0.622              1.890              2.531
 Vibration    10          0.625              1.880              2.444
 Vibration    11          0.632              1.858              2.259
 Vibration    12          0.636              1.847              2.181
 Vibration    13          0.662              1.763              1.733
 Vibration    14          0.675              1.724              1.581
 Vibration    15          0.699              1.654              1.361
 Vibration    16          0.715              1.609              1.244
 Vibration    17          0.715              1.608              1.241
 Vibration    18          0.783              1.427              0.892
 Vibration    19          0.826              1.319              0.740
 Vibration    20          0.908              1.134              0.538
 Vibration    21          0.934              1.081              0.491
 Vibration    22          0.938              1.072              0.483

 Optimization completed.
    -- Stationary point found.
 Normal termination of Gaussian 16 at Fri May 19 05:46:11 2023.
