 Gaussian 16, Revision A.03,
 Gaussian 16:  ES64L-G16RevA.03 25-Dec-2016

 -----------------------------
 # opt freq b3lyp/6-31g(2df,p)
 -----------------------------

 -------------------
 Title Card Required
 -------------------
 Symbolic Z-matrix:
 Charge =  0 Multiplicity = 2

 SCF Done:  E(UB3LYP) =  -1650.15037960     A.U. after   24 cycles
 SCF Done:  E(UB3LYP) =  -1650.16987305     A.U. after   19 cycles
 SCF Done:  E(UB3LYP) =  -1650.17729153     A.U. after   19 cycles
 SCF Done:  E(UB3LYP) =  -1650.17451092     A.U. after   18 cycles
 SCF Done:  E(UB3LYP) =  -1650.17921965     A.U. after   17 cycles
 SCF Done:  E(UB3LYP) =  -1650.17959369     A.U. after   16 cycles
 SCF Done:  E(UB3LYP) =  -1650.17979814     A.U. after   16 cycles
 SCF Done:  E(UB3LYP) =  -1650.17988853     A.U. after   16 cycles
 SCF Done:  E(UB3LYP) =  -1650.17993250     A.U. after   15 cycles
 SCF Done:  E(UB3LYP) =  -1650.17998064     A.U. after   16 cycles
 SCF Done:  E(UB3LYP) =  -1650.18159471     A.U. after   19 cycles
 SCF Done:  E(UB3LYP) =  -1650.18181307     A.U. after   19 cycles
 SCF Done:  E(UB3LYP) =  -1650.18189337     A.U. after   18 cycles
 SCF Done:  E(UB3LYP) =  -1650.18193850     A.U. after   18 cycles
 SCF Done:  E(UB3LYP) =  -1650.18194587     A.U. after   14 cycles
 SCF Done:  E(UB3LYP) =  -1650.18194902     A.U. after   13 cycles
 SCF Done:  E(UB3LYP) =  -1650.18194969     A.U. after    9 cycles
 SCF Done:  E(UB3LYP) =  -1650.18194992     A.U. after   12 cycles
 SCF Done:  E(UB3LYP) =  -1650.18194995     A.U. after   10 cycles
 Optimization completed.
    -- Stationary point found.

 The electronic state is 2-A.
 Alpha  occ. eigenvalues --  -88.93964 -88.92505 -88.92159 -19.13307 -14.36024
 Alpha  occ. eigenvalues --  -14.35845 -10.28852 -10.28267 -10.27369 -10.25732
 Alpha  occ. eigenvalues --  -10.24406 -10.21972 -10.21943  -7.99737  -7.98723
 Alpha  occ. eigenvalues --   -7.98391  -5.96302  -5.95848  -5.95319  -5.95220
 Alpha  occ. eigenvalues --   -5.94879  -5.94808  -5.94463  -5.94300  -5.93986
 Alpha  occ. eigenvalues --   -1.03465  -0.98652  -0.91741  -0.87752  -0.81745
 Alpha  occ. eigenvalues --   -0.78443  -0.76995  -0.72380  -0.68122  -0.66354
 Alpha  occ. eigenvalues --   -0.60961  -0.56771  -0.53456  -0.51712  -0.50470
 Alpha  occ. eigenvalues --   -0.47900  -0.46958  -0.46266  -0.44129  -0.43209
 Alpha  occ. eigenvalues --   -0.42649  -0.41503  -0.39920  -0.38906  -0.38357
 Alpha  occ. eigenvalues --   -0.36654  -0.35594  -0.34338  -0.33265  -0.27545
 Alpha  occ. eigenvalues --   -0.26962  -0.26157  -0.24745  -0.24439  -0.22928
 Alpha virt. eigenvalues --   -0.09090  -0.06065  -0.01243   0.00657   0.02256
 Alpha virt. eigenvalues --    0.03241   0.03959   0.05022   0.07577   0.09053
 Alpha virt. eigenvalues --    0.11517   0.11747   0.12342   0.13593   0.16343

  Beta  occ. eigenvalues --  -88.93925 -88.92485 -88.92162 -19.12705 -14.35766
  Beta  occ. eigenvalues --  -14.35391 -10.29056 -10.28295 -10.27431 -10.25887
  Beta  occ. eigenvalues --  -10.24407 -10.21919 -10.21164  -7.99698  -7.98705
  Beta  occ. eigenvalues --   -7.98394  -5.96293  -5.95842  -5.95174  -5.95162
  Beta  occ. eigenvalues --   -5.94881  -5.94768  -5.94464  -5.94293  -5.93997
  Beta  occ. eigenvalues --   -1.02339  -0.98235  -0.91066  -0.87734  -0.81384
  Beta  occ. eigenvalues --   -0.77808  -0.76788  -0.71557  -0.67977  -0.66055
  Beta  occ. eigenvalues --   -0.60860  -0.56370  -0.53163  -0.51626  -0.50257
  Beta  occ. eigenvalues --   -0.47415  -0.46859  -0.46254  -0.43968  -0.42681
  Beta  occ. eigenvalues --   -0.41788  -0.41072  -0.39126  -0.38442  -0.36988
  Beta  occ. eigenvalues --   -0.36411  -0.35528  -0.33791  -0.32043  -0.27464
  Beta  occ. eigenvalues --   -0.26270  -0.25333  -0.24122  -0.22545
  Beta virt. eigenvalues --   -0.14328  -0.08812  -0.05554  -0.00489   0.00940
  Beta virt. eigenvalues --    0.02474   0.03368   0.04324   0.05087   0.08927
  Beta virt. eigenvalues --    0.09549   0.11554   0.11767   0.12360   0.13905

 Mulliken charges and spin densities:
               1          2
     1  C   -0.408277  -0.000239
     2  S   -0.026607  -0.005047
     3  C    0.103315  -0.017920
     4  C   -0.149846   0.014727
     5  C    0.021312  -0.037232
     6  N   -0.253610   0.038981
     7  C    0.395760  -0.116379
     8  C   -0.172009   0.582372
     9  C    0.139598  -0.092912
    10  O   -0.280713   0.238229
    11  N   -0.296147   0.306278
    12  S    0.014157   0.069740
    13  S   -0.053721   0.035151
    14  H    0.165690  -0.000153
    15  H    0.167300  -0.000165
    16  H    0.161756  -0.000135
    17  H    0.107699  -0.000490
    18  H    0.125781   0.006071
    19  H    0.131003  -0.020829
    20  H    0.107560  -0.000049
 Sum of Mulliken charges =  -0.00000   1.00000

 Dipole moment (field-independent basis, Debye):
    X=             -6.4396    Y=              2.4742    Z=              1.6262  Tot=              7.0876
 Quadrupole moment (field-independent basis, Debye-Ang):
   XX=           -105.3808   YY=            -93.6591   ZZ=            -96.6933
   XY=            -12.8737   XZ=              6.4508   YZ=              2.4516

 Normal termination of Gaussian 16 at Tue May 16 18:14:53 2023.

 ----------------------------------------------------------------------
 #N Geom=AllCheck Guess=TCheck SCRF=Check GenChk UB3LYP/6-31G(2df,p) Fr
 eq
 ----------------------------------------------------------------------

 Structure from the checkpoint file:  "CSC1dCCdNCqdCCdOr[N]SS1.chk"
 -------------------
 Title Card Required
 -------------------
 Charge =  0 Multiplicity = 2

                         Standard orientation:
 ---------------------------------------------------------------------
 Center     Atomic      Atomic             Coordinates (Angstroms)
 Number     Number       Type             X           Y           Z
 ---------------------------------------------------------------------
      1          6           0       -4.056273    1.648425   -0.543571
      2         16           0       -3.437417   -0.054044   -0.723115
      3          6           0       -1.838675    0.004514    0.012934
      4          6           0       -1.448575    0.943931    0.908260
      5          6           0       -0.175292    1.221030    1.545639
      6          7           0        1.053918    1.063866    1.244310
      7          6           0        1.900495    0.329866    0.485517
      8          6           0        2.986781    1.040233   -0.102885
      9          6           0        4.025607    0.420539   -0.892883
     10          8           0        4.943142    1.063348   -1.385625
     11          7           0        1.916527   -1.005183    0.376067
     12         16           0        0.576966   -1.917814    0.726766
     13         16           0       -0.924249   -1.362437   -0.624334
     14          1           0       -4.944617    1.702266   -1.175958
     15          1           0       -3.310495    2.362942   -0.895252
     16          1           0       -4.339687    1.864968    0.487955
     17          1           0       -2.228279    1.600551    1.282601
     18          1           0       -0.320434    1.811432    2.458244
     19          1           0        3.038118    2.113373    0.045237
     20          1           0        3.957926   -0.675619   -1.007586
 ---------------------------------------------------------------------

 SCF Done:  E(UB3LYP) =  -1650.18194995     A.U. after    1 cycles
