 Gaussian 16, Revision A.03,
 Gaussian 16:  ES64L-G16RevA.03 25-Dec-2016

 -----------------------------
 # opt freq b3lyp/6-31g(2df,p)
 -----------------------------

 -------------------
 Title Card Required
 -------------------
 Symbolic Z-matrix:
 Charge =  0 Multiplicity = 1

 SCF Done:  E(RB3LYP) =  -1376.03956395     A.U. after   21 cycles
 SCF Done:  E(RB3LYP) =  -1376.11251713     A.U. after   14 cycles
 SCF Done:  E(RB3LYP) =  -1376.18340334     A.U. after   14 cycles
 SCF Done:  E(RB3LYP) =  -1376.23716766     A.U. after   13 cycles
 SCF Done:  E(RB3LYP) =  -1376.27396599     A.U. after   14 cycles
 SCF Done:  E(RB3LYP) =  -1376.28555041     A.U. after   13 cycles
 SCF Done:  E(RB3LYP) =  -1376.29164555     A.U. after   14 cycles
 SCF Done:  E(RB3LYP) =  -1376.29420865     A.U. after   13 cycles
 SCF Done:  E(RB3LYP) =  -1376.29510667     A.U. after   12 cycles
 SCF Done:  E(RB3LYP) =  -1376.29517648     A.U. after   12 cycles
 SCF Done:  E(RB3LYP) =  -1376.29543621     A.U. after   10 cycles
 SCF Done:  E(RB3LYP) =  -1376.29545357     A.U. after   10 cycles
 SCF Done:  E(RB3LYP) =  -1376.29546962     A.U. after   11 cycles
 SCF Done:  E(RB3LYP) =  -1376.29549262     A.U. after   11 cycles
 SCF Done:  E(RB3LYP) =  -1376.29552835     A.U. after   12 cycles
 SCF Done:  E(RB3LYP) =  -1376.29554666     A.U. after   10 cycles
 SCF Done:  E(RB3LYP) =  -1376.29554921     A.U. after   10 cycles
 SCF Done:  E(RB3LYP) =  -1376.29555024     A.U. after    9 cycles
 SCF Done:  E(RB3LYP) =  -1376.29555039     A.U. after    8 cycles
 Optimization completed.
    -- Stationary point found.
 Normal termination of Gaussian 16 at Sat May 20 14:48:59 2023.

 ----------------------------------------------------------------------
 #N Geom=AllCheck Guess=TCheck SCRF=Check GenChk RB3LYP/6-31G(2df,p) Fr
 eq
 ----------------------------------------------------------------------

 Structure from the checkpoint file:  "CSC1dCC2dCCdCC2dCCdCCdCCdCS1.chk"
 -------------------
 Title Card Required
 -------------------
 Charge =  0 Multiplicity = 1

                         Standard orientation:
 ---------------------------------------------------------------------
 Center     Atomic      Atomic             Coordinates (Angstroms)
 Number     Number       Type             X           Y           Z
 ---------------------------------------------------------------------
      1          6           0        2.748230    2.861724   -0.125412
      2         16           0        1.933407    1.664889   -1.237719
      3          6           0        0.592944    1.065642   -0.226666
      4          6           0       -0.671182    1.286870   -0.649060
      5          6           0       -1.985045    0.890618   -0.083022
      6          6           0       -2.789150    1.763890    0.587372
      7          6           0       -4.073730    1.141894    0.893606
      8          6           0       -4.070477   -0.118841    0.400757
      9          6           0       -2.778440   -0.366865   -0.234978
     10          6           0       -2.400644   -1.579457   -0.725407
     11          6           0       -1.059726   -1.801883   -1.183210
     12          6           0       -0.236983   -2.807993   -0.798788
     13          6           0        1.131690   -2.392912   -0.623183
     14          6           0        1.973706   -2.758314    0.364513
     15          6           0        2.924821   -1.775163    0.868444
     16          6           0        2.616426   -0.491566    1.152208
     17         16           0        0.964267    0.200688    1.299064
     18          1           0        3.599790    3.257381   -0.683218
     19          1           0        3.105861    2.380313    0.785436
     20          1           0        2.066924    3.676004    0.126436
     21          1           0       -0.734910    1.936906   -1.521866
     22          1           0       -2.516875    2.776637    0.856520
     23          1           0       -4.876758    1.625857    1.433430
     24          1           0       -4.857826   -0.857305    0.465251
     25          1           0       -3.086490   -2.418251   -0.617133
     26          1           0       -0.575393   -0.922436   -1.590820
     27          1           0       -0.608805   -3.707194   -0.313230
     28          1           0        1.392129   -1.482051   -1.155069
     29          1           0        1.848458   -3.690162    0.912834
     30          1           0        3.944916   -2.090278    1.092093
     31          1           0        3.401564    0.159477    1.524775
 ---------------------------------------------------------------------

 SCF Done:  E(RB3LYP) =  -1376.29555039     A.U. after    1 cycles

 The electronic state is 1-A.
 Alpha  occ. eigenvalues --  -88.88296 -88.87741 -10.23814 -10.21801 -10.21106
 Alpha  occ. eigenvalues --  -10.20954 -10.20860 -10.20603 -10.19781 -10.19638
 Alpha  occ. eigenvalues --  -10.19588 -10.19584 -10.19323 -10.18511 -10.17565
 Alpha  occ. eigenvalues --  -10.17474 -10.17000  -7.94381  -7.93959  -5.90877
 Alpha  occ. eigenvalues --   -5.90512  -5.90458  -5.90104  -5.89961  -5.89487
 Alpha  occ. eigenvalues --   -0.86512  -0.84175  -0.83014  -0.80641  -0.76937
 Alpha  occ. eigenvalues --   -0.75945  -0.73284  -0.70883  -0.68092  -0.64796
 Alpha  occ. eigenvalues --   -0.63546  -0.59442  -0.57482  -0.55804  -0.53555
 Alpha  occ. eigenvalues --   -0.52219  -0.50649  -0.49460  -0.47422  -0.45532
 Alpha  occ. eigenvalues --   -0.45200  -0.44337  -0.42741  -0.41962  -0.40929
 Alpha  occ. eigenvalues --   -0.40028  -0.39418  -0.38897  -0.37730  -0.36919
 Alpha  occ. eigenvalues --   -0.36660  -0.35547  -0.34657  -0.34413  -0.33304
 Alpha  occ. eigenvalues --   -0.32491  -0.28429  -0.27653  -0.26107  -0.23366
 Alpha  occ. eigenvalues --   -0.21771  -0.20674  -0.19857
 Alpha virt. eigenvalues --   -0.08052  -0.03505  -0.01088   0.00827   0.02892
 Alpha virt. eigenvalues --    0.04471   0.06744   0.08148   0.08734   0.09295
 Alpha virt. eigenvalues --    0.09946   0.10575   0.11637   0.12421   0.13139

 Mulliken charges:
               1
     1  C   -0.378852
     2  S   -0.150961
     3  C    0.159423
     4  C   -0.299865
     5  C    0.176541
     6  C   -0.177911
     7  C   -0.124449
     8  C   -0.175251
     9  C    0.213563
    10  C   -0.201280
    11  C   -0.074594
    12  C   -0.113290
    13  C   -0.033429
    14  C   -0.134889
    15  C   -0.075372
    16  C   -0.092099
    17  S   -0.156823
    18  H    0.147452
    19  H    0.151327
    20  H    0.150356
    21  H    0.129552
    22  H    0.096681
    23  H    0.097526
    24  H    0.095389
    25  H    0.105244
    26  H    0.113146
    27  H    0.103025
    28  H    0.122936
    29  H    0.101880
    30  H    0.108410
    31  H    0.116614
 Sum of Mulliken charges =   0.00000

 Dipole moment (field-independent basis, Debye):
    X=              1.1084    Y=             -0.7725    Z=              0.5375  Tot=              1.4540
 Quadrupole moment (field-independent basis, Debye-Ang):
   XX=           -104.0696   YY=           -101.4676   ZZ=           -118.2090
   XY=              3.7485   XZ=              3.0620   YZ=             -0.0495

  Exact polarizability: 292.300 -31.142 228.883   1.444   8.805 134.891
 Approx polarizability: 503.049-105.340 422.687  17.236  31.479 262.766

                      1                      2                      3
                      A                      A                      A
 Frequencies --     24.2217                52.6080                81.4493
 Red. masses --      5.4245                 3.6940                 5.6352
 Frc consts  --      0.0019                 0.0060                 0.0220
 IR Inten    --      0.1403                 1.6376                 0.3969

                      4                      5                      6
                      A                      A                      A
 Frequencies --     85.1159               103.3747               123.4753
 Red. masses --      4.3995                 4.3202                 1.3171
 Frc consts  --      0.0188                 0.0272                 0.0118
 IR Inten    --      1.0412                 0.4859                 0.0501

                      7                      8                      9
                      A                      A                      A
 Frequencies --    133.2181               165.4318               174.5458
 Red. masses --      3.2961                 3.0033                 3.9638
 Frc consts  --      0.0345                 0.0484                 0.0712
 IR Inten    --      1.3013                 1.5588                 0.7902

                     10                     11                     12
                      A                      A                      A
 Frequencies --    206.8078               227.7459               246.2198
 Red. masses --      4.6172                 3.4408                 7.3465
 Frc consts  --      0.1163                 0.1052                 0.2624
 IR Inten    --      0.6884                 3.8141                 0.7534

                     13                     14                     15
                      A                      A                      A
 Frequencies --    266.2996               278.3720               312.8591
 Red. masses --      2.9888                 3.3140                 4.6433
 Frc consts  --      0.1249                 0.1513                 0.2678
 IR Inten    --      0.0568                 7.4977                 2.0882

                     16                     17                     18
                      A                      A                      A
 Frequencies --    348.3700               371.6980               404.1644
 Red. masses --      3.4319                 4.6689                 3.6638
 Frc consts  --      0.2454                 0.3801                 0.3526
 IR Inten    --      3.3828                 1.9698                 1.8046

                     19                     20                     21
                      A                      A                      A
 Frequencies --    432.7108               449.5583               490.1128
 Red. masses --      5.2590                 3.1813                 3.9312
 Frc consts  --      0.5802                 0.3788                 0.5564
 IR Inten    --      0.6920                 1.4138                 5.0323

                     22                     23                     24
                      A                      A                      A
 Frequencies --    509.4905               555.5501               569.7532
 Red. masses --      3.8544                 3.8900                 3.4615
 Frc consts  --      0.5895                 0.7074                 0.6621
 IR Inten    --      4.2173                 8.3577                 0.6123

                     25                     26                     27
                      A                      A                      A
 Frequencies --    595.8630               656.0976               668.5284
 Red. masses --      4.9723                 5.3137                 3.3961
 Frc consts  --      1.0402                 1.3477                 0.8943
 IR Inten    --      9.3350                 2.1823                 7.5639

                     28                     29                     30
                      A                      A                      A
 Frequencies --    695.2839               707.4443               731.8798
 Red. masses --      3.6736                 2.8821                 2.1724
 Frc consts  --      1.0463                 0.8498                 0.6856
 IR Inten    --      0.7158                 4.9779                16.0226

                     31                     32                     33
                      A                      A                      A
 Frequencies --    751.9250               776.1530               785.1729
 Red. masses --      2.9951                 2.1342                 2.2308
 Frc consts  --      0.9977                 0.7575                 0.8103
 IR Inten    --     10.2737                27.7915                19.2070

                     34                     35                     36
                      A                      A                      A
 Frequencies --    814.1399               843.3261               857.8242
 Red. masses --      5.3123                 2.0506                 1.6839
 Frc consts  --      2.0746                 0.8593                 0.7301
 IR Inten    --     10.1803                 6.8927                11.5135

                     37                     38                     39
                      A                      A                      A
 Frequencies --    864.1551               885.6252               912.4019
 Red. masses --      1.5765                 1.7794                 1.6596
 Frc consts  --      0.6936                 0.8223                 0.8140
 IR Inten    --      9.3103               107.3661                11.5292

                     40                     41                     42
                      A                      A                      A
 Frequencies --    923.6539               925.5918               961.3301
 Red. masses --      1.6437                 2.4401                 1.2175
 Frc consts  --      0.8262                 1.2317                 0.6630
 IR Inten    --     12.1912                18.1431                 2.7897

                     43                     44                     45
                      A                      A                      A
 Frequencies --    968.5536               983.8852               989.3857
 Red. masses --      1.3187                 1.3605                 1.1603
 Frc consts  --      0.7289                 0.7760                 0.6692
 IR Inten    --      8.2199                 4.0789                 9.9915

                     46                     47                     48
                      A                      A                      A
 Frequencies --   1015.9547              1034.1155              1063.0872
 Red. masses --      1.7254                 1.9605                 1.1861
 Frc consts  --      1.0493                 1.2353                 0.7898
 IR Inten    --      0.5468                18.0409                68.9457

                     49                     50                     51
                      A                      A                      A
 Frequencies --   1097.5517              1120.4114              1163.3875
 Red. masses --      1.7492                 1.8243                 2.4225
 Frc consts  --      1.2415                 1.3492                 1.9318
 IR Inten    --      9.5056                28.8207                 0.3895

                     52                     53                     54
                      A                      A                      A
 Frequencies --   1170.5950              1198.8432              1224.4509
 Red. masses --      2.2357                 2.4438                 1.1339
 Frc consts  --      1.8050                 2.0694                 1.0016
 IR Inten    --     19.7249                20.9721                 2.2507

                     55                     56                     57
                      A                      A                      A
 Frequencies --   1250.2696              1267.9932              1307.1189
 Red. masses --      1.6553                 1.6121                 1.6442
 Frc consts  --      1.5245                 1.5272                 1.6551
 IR Inten    --      1.0267                 1.2691                 1.2213

                     58                     59                     60
                      A                      A                      A
 Frequencies --   1314.5600              1338.6977              1343.4617
 Red. masses --      1.2081                 1.5137                 1.1706
 Frc consts  --      1.2300                 1.5983                 1.2448
 IR Inten    --      6.3220                23.7447                 4.2585

                     61                     62                     63
                      A                      A                      A
 Frequencies --   1346.7278              1369.1394              1380.0347
 Red. masses --      1.6792                 1.4810                 1.6772
 Frc consts  --      1.7944                 1.6357                 1.8820
 IR Inten    --      1.0922                 3.7783                10.0440

                     64                     65                     66
                      A                      A                      A
 Frequencies --   1409.1343              1458.6133              1478.8315
 Red. masses --      1.3391                 1.0544                 1.0542
 Frc consts  --      1.5667                 1.3217                 1.3583
 IR Inten    --      1.3171                 6.0591                 6.3763

                     67                     68                     69
                      A                      A                      A
 Frequencies --   1512.0119              1588.8008              1593.0562
 Red. masses --      7.0931                 5.9043                 6.7029
 Frc consts  --      9.5543                 8.7812                10.0225
 IR Inten    --     91.9685                 5.4975                 8.6761

                     70                     71                     72
                      A                      A                      A
 Frequencies --   1609.4952              1624.6908              1639.7533
 Red. masses --      7.4700                 7.3284                 4.5271
 Frc consts  --     11.4012                11.3973                 7.1718
 IR Inten    --     25.4210                 3.7574                41.8649

                     73                     74                     75
                      A                      A                      A
 Frequencies --   1661.5291              3054.4789              3113.5775
 Red. masses --      5.5716                 1.0286                 1.0838
 Frc consts  --      9.0624                 5.6542                 6.1902
 IR Inten    --     41.9211                22.4462                21.6252

                     76                     77                     78
                      A                      A                      A
 Frequencies --   3114.7657              3141.2595              3143.7754
 Red. masses --      1.0846                 1.0882                 1.0890
 Frc consts  --      6.1996                 6.3264                 6.3412
 IR Inten    --      8.1617                17.9388                14.7830

                     79                     80                     81
                      A                      A                      A
 Frequencies --   3145.6387              3150.1711              3158.0065
 Red. masses --      1.1055                 1.1056                 1.0892
 Frc consts  --      6.4450                 6.4642                 6.3999
 IR Inten    --      4.3190                 6.7900                 7.8337

                     82                     83                     84
                      A                      A                      A
 Frequencies --   3165.9720              3166.4450              3192.3435
 Red. masses --      1.0900                 1.0899                 1.0845
 Frc consts  --      6.4370                 6.4383                 6.5116
 IR Inten    --     26.0889                10.0497                 7.2400

                     85                     86                     87
                      A                      A                      A
 Frequencies --   3207.3832              3217.8232              3236.8306
 Red. masses --      1.0881                 1.0913                 1.1050
 Frc consts  --      6.5954                 6.6576                 6.8213
 IR Inten    --      3.7754                 8.4546                20.6394

 - Thermochemistry -
 -------------------
 Temperature   298.150 Kelvin.  Pressure   1.00000 Atm.
 Atom     1 has atomic number  6 and mass  12.00000

 Molecular mass:   258.05369 amu.
 Principal axes and moments of inertia in atomic units:
                           1         2         3
     Eigenvalues --  3351.304715493.363917399.01253
           X            0.99990   0.01373   0.00223
           Y           -0.01373   0.99990   0.00347
           Z           -0.00218  -0.00350   0.99999
 This molecule is an asymmetric top.
 Rotational symmetry number  1.
 Warning -- assumption of classical behavior for rotation
           may cause significant error
 Rotational temperatures (Kelvin)      0.02584     0.01577     0.01171
 Rotational constants (GHZ):           0.53852     0.32853     0.24392
 Zero-point vibrational energy     632239.3 (Joules/Mol)
                                  151.10883 (Kcal/Mol)
 Warning -- explicit consideration of  25 degrees of freedom as
           vibrations may cause significant error
 Vibrational temperatures:     34.85    75.69   117.19   122.46   148.73
          (Kelvin)            177.65   191.67   238.02   251.13   297.55
                              327.68   354.26   383.15   400.52   450.13
                              501.23   534.79   581.50   622.57   646.81
                              705.16   733.04   799.31   819.75   857.31
                              943.98   961.86  1000.36  1017.85  1053.01
                             1081.85  1116.71  1129.69  1171.37  1213.36
                             1234.22  1243.33  1274.22  1312.74  1328.93
                             1331.72  1383.14  1393.53  1415.59  1423.51
                             1461.73  1487.86  1529.55  1579.13  1612.02
                             1673.86  1684.23  1724.87  1761.71  1798.86
                             1824.36  1880.65  1891.36  1926.09  1932.94
                             1937.64  1969.89  1985.56  2027.43  2098.62
                             2127.71  2175.45  2285.93  2292.05  2315.70
                             2337.57  2359.24  2390.57  4394.71  4479.74
                             4481.45  4519.57  4523.19  4525.87  4532.39
                             4543.67  4555.13  4555.81  4593.07  4614.71
                             4629.73  4657.08

 Zero-point correction=                           0.240807 (Hartree/Particle)
 Thermal correction to Energy=                    0.257432
 Thermal correction to Enthalpy=                  0.258376
 Thermal correction to Gibbs Free Energy=         0.195990
 Sum of electronic and zero-point Energies=          -1376.054743
 Sum of electronic and thermal Energies=             -1376.038119
 Sum of electronic and thermal Enthalpies=           -1376.037175
 Sum of electronic and thermal Free Energies=        -1376.099560

                     E (Thermal)             CV                S
                      KCal/Mol        Cal/Mol-Kelvin    Cal/Mol-Kelvin
 Total                  161.541             63.485            131.301
 Electronic               0.000              0.000              0.000
 Translational            0.889              2.981             42.544
 Rotational               0.889              2.981             33.276
 Vibrational            159.763             57.523             55.481
 Vibration     1          0.593              1.985              6.254
 Vibration     2          0.596              1.977              4.717
 Vibration     3          0.600              1.962              3.856
 Vibration     4          0.601              1.959              3.769
 Vibration     5          0.605              1.947              3.390
 Vibration     6          0.610              1.929              3.045
 Vibration     7          0.613              1.920              2.899
 Vibration     8          0.624              1.885              2.487
 Vibration     9          0.627              1.874              2.386
 Vibration    10          0.641              1.830              2.072
 Vibration    11          0.651              1.799              1.897
 Vibration    12          0.661              1.769              1.757
 Vibration    13          0.672              1.735              1.620
 Vibration    14          0.679              1.714              1.544
 Vibration    15          0.701              1.649              1.347
 Vibration    16          0.726              1.579              1.174
 Vibration    17          0.743              1.530              1.073
 Vibration    18          0.769              1.461              0.947
 Vibration    19          0.794              1.399              0.850
 Vibration    20          0.808              1.362              0.797
 Vibration    21          0.846              1.272              0.683
 Vibration    22          0.865              1.229              0.635
 Vibration    23          0.911              1.128              0.533
 Vibration    24          0.926              1.097              0.505
 Vibration    25          0.954              1.041              0.457

                           ! Non-Optimized Parameters !
 Normal termination of Gaussian 16 at Sat May 20 17:59:12 2023.
