 Gaussian 16, Revision A.03,
 Gaussian 16:  ES64L-G16RevA.03 25-Dec-2016

 -----------------------------
 # opt freq b3lyp/6-31g(2df,p)
 -----------------------------

 -------------------
 Title Card Required
 -------------------
 Symbolic Z-matrix:
 Charge =  0 Multiplicity = 1

 SCF Done:  E(RB3LYP) =  -1335.89178008     A.U. after   21 cycles
 SCF Done:  E(RB3LYP) =  -1335.92600565     A.U. after   16 cycles
 SCF Done:  E(RB3LYP) =  -1335.94045945     A.U. after   16 cycles
 SCF Done:  E(RB3LYP) =  -1335.94785778     A.U. after   15 cycles
 SCF Done:  E(RB3LYP) =  -1335.95427608     A.U. after   15 cycles
 SCF Done:  E(RB3LYP) =  -1335.95932331     A.U. after   15 cycles
 SCF Done:  E(RB3LYP) =  -1335.96379771     A.U. after   15 cycles
 SCF Done:  E(RB3LYP) =  -1335.96830766     A.U. after   15 cycles
 SCF Done:  E(RB3LYP) =  -1335.97239608     A.U. after   17 cycles
 SCF Done:  E(RB3LYP) =  -1335.97444603     A.U. after   14 cycles
 SCF Done:  E(RB3LYP) =  -1335.97650509     A.U. after   13 cycles
 SCF Done:  E(RB3LYP) =  -1335.97652145     A.U. after   11 cycles
 SCF Done:  E(RB3LYP) =  -1335.97652444     A.U. after   11 cycles
 SCF Done:  E(RB3LYP) =  -1335.97652774     A.U. after   10 cycles
 SCF Done:  E(RB3LYP) =  -1335.97652900     A.U. after    9 cycles
 SCF Done:  E(RB3LYP) =  -1335.97652929     A.U. after    9 cycles
 SCF Done:  E(RB3LYP) =  -1335.97652934     A.U. after    7 cycles
 SCF Done:  E(RB3LYP) =  -1335.97652937     A.U. after    7 cycles
 SCF Done:  E(RB3LYP) =  -1335.97652938     A.U. after    7 cycles
 Optimization completed.
    -- Stationary point found.
 Normal termination of Gaussian 16 at Wed May 17 19:43:55 2023.

 ----------------------------------------------------------------------
 #N Geom=AllCheck Guess=TCheck SCRF=Check GenChk RB3LYP/6-31G(2df,p) Fr
 eq
 ----------------------------------------------------------------------

 Structure from the checkpoint file:  "CSC1dCCdCCdCCdC1[C]SCCdO.chk"
 -------------------
 Title Card Required
 -------------------
 Charge =  0 Multiplicity = 1

                         Standard orientation:
 ---------------------------------------------------------------------
 Center     Atomic      Atomic             Coordinates (Angstroms)
 Number     Number       Type             X           Y           Z
 ---------------------------------------------------------------------
      1          6           0       -0.213701    2.720819    0.981606
      2         16           0        0.283338    2.293434   -0.716019
      3          6           0        1.059344    0.697756   -0.528306
      4          6           0        1.907202    0.306404   -1.492523
      5          6           0        2.665771   -0.938361   -1.525472
      6          6           0        3.427350   -1.461076   -0.544150
      7          6           0        3.676990   -0.954639    0.798491
      8          6           0        2.812766   -0.513764    1.739471
      9          6           0        1.367663   -0.513544    1.659627
     10          6           0        0.576955   -0.160080    0.602777
     11          6           0       -0.757711   -0.681448    0.697816
     12         16           0       -1.594351   -0.875540   -0.737019
     13          6           0       -3.205645   -1.536678   -0.137098
     14          6           0       -4.031121   -0.433538    0.493369
     15          8           0       -5.146941   -0.144300    0.149567
     16          1           0       -0.680166    3.705041    0.904529
     17          1           0        0.651467    2.781713    1.644199
     18          1           0       -0.938799    2.007427    1.377360
     19          1           0        2.071694    0.972604   -2.339648
     20          1           0        2.730206   -1.420220   -2.500470
     21          1           0        4.033198   -2.327129   -0.806601
     22          1           0        4.716399   -1.045639    1.113829
     23          1           0        3.223632   -0.312403    2.727281
     24          1           0        0.840150   -0.915149    2.523383
     25          1           0       -2.968560   -2.299448    0.608063
     26          1           0       -3.736862   -1.971400   -0.985786
     27          1           0       -3.505796    0.101601    1.312283
 ---------------------------------------------------------------------

 SCF Done:  E(RB3LYP) =  -1335.97652938     A.U. after    1 cycles

 The electronic state is 1-A.
 Alpha  occ. eigenvalues --  -88.91272 -88.88066 -19.14476 -10.27717 -10.22622
 Alpha  occ. eigenvalues --  -10.22125 -10.21715 -10.21406 -10.21306 -10.21215
 Alpha  occ. eigenvalues --  -10.20697 -10.20520 -10.20423 -10.19889 -10.19255
 Alpha  occ. eigenvalues --   -7.97376  -7.94309  -5.93711  -5.93355  -5.93258
 Alpha  occ. eigenvalues --   -5.90790  -5.90433  -5.89872  -1.05153  -0.86655
 Alpha  occ. eigenvalues --   -0.82980  -0.81331  -0.79889  -0.76831  -0.73278
 Alpha  occ. eigenvalues --   -0.70916  -0.67526  -0.63557  -0.59895  -0.57880
 Alpha  occ. eigenvalues --   -0.57477  -0.53687  -0.50325  -0.48308  -0.47339
 Alpha  occ. eigenvalues --   -0.46696  -0.45552  -0.45183  -0.44548  -0.43705
 Alpha  occ. eigenvalues --   -0.42758  -0.40825  -0.40241  -0.39912  -0.38164
 Alpha  occ. eigenvalues --   -0.36782  -0.36154  -0.35320  -0.33687  -0.32690
 Alpha  occ. eigenvalues --   -0.31439  -0.29643  -0.28207  -0.26031  -0.23691
 Alpha  occ. eigenvalues --   -0.20663  -0.20333
 Alpha virt. eigenvalues --   -0.09272  -0.04589  -0.03016   0.01479   0.01820
 Alpha virt. eigenvalues --    0.04686   0.05233   0.07234   0.08634   0.09345
 Alpha virt. eigenvalues --    0.10078   0.11563   0.11802   0.12714   0.13144

 Mulliken charges:
               1
     1  C   -0.396451
     2  S   -0.123174
     3  C    0.125342
     4  C   -0.164621
     5  C   -0.105863
     6  C   -0.099079
     7  C   -0.074357
     8  C   -0.125646
     9  C   -0.091743
    10  C    0.126816
    11  C   -0.233644
    12  S    0.003749
    13  C   -0.282925
    14  C    0.156675
    15  O   -0.230527
    16  H    0.151314
    17  H    0.148700
    18  H    0.158234
    19  H    0.111962
    20  H    0.103921
    21  H    0.102975
    22  H    0.108934
    23  H    0.104773
    24  H    0.124081
    25  H    0.160162
    26  H    0.142074
    27  H    0.098318
 Sum of Mulliken charges =  -0.00000

 Dipole moment (field-independent basis, Debye):
    X=              3.5533    Y=             -1.3017    Z=              1.3627  Tot=              4.0221
 Quadrupole moment (field-independent basis, Debye-Ang):
   XX=           -110.4592   YY=            -97.6627   ZZ=            -96.3758
   XY=             -0.3478   XZ=              0.5541   YZ=              4.4734

  Exact polarizability: 259.568 -21.191 146.297  10.960   6.651 157.126
 Approx polarizability: 419.368 -47.854 233.216  35.520  11.383 307.331

                      1                      2                      3
                      A                      A                      A
 Frequencies --     25.5031                38.4344                47.0555
 Red. masses --      5.9049                 5.8918                 3.8358
 Frc consts  --      0.0023                 0.0051                 0.0050
 IR Inten    --      1.1158                 0.6988                 0.9186

                      4                      5                      6
                      A                      A                      A
 Frequencies --     56.4734                76.6781                90.3152
 Red. masses --      8.3237                 4.1262                 4.7396
 Frc consts  --      0.0156                 0.0143                 0.0228
 IR Inten    --      2.1798                 0.3217                 0.4860

                      7                      8                      9
                      A                      A                      A
 Frequencies --    105.0448               158.1557               163.8725
 Red. masses --      5.0295                 3.6846                 2.5626
 Frc consts  --      0.0327                 0.0543                 0.0405
 IR Inten    --      5.3668                 2.0905                 2.3882

                     10                     11                     12
                      A                      A                      A
 Frequencies --    183.2460               194.9496               240.6297
 Red. masses --      1.7061                 1.7790                 4.4319
 Frc consts  --      0.0338                 0.0398                 0.1512
 IR Inten    --      3.5684                 1.8779                12.1067

                     13                     14                     15
                      A                      A                      A
 Frequencies --    260.7174               283.8323               293.9630
 Red. masses --      5.1766                 4.6743                 4.9141
 Frc consts  --      0.2073                 0.2219                 0.2502
 IR Inten    --      1.9165                 1.3205                 5.9410

                     16                     17                     18
                      A                      A                      A
 Frequencies --    355.0307               368.9278               402.9781
 Red. masses --      4.5111                 5.0790                 2.6701
 Frc consts  --      0.3350                 0.4073                 0.2555
 IR Inten    --      0.5758                 6.5696                12.8526

                     19                     20                     21
                      A                      A                      A
 Frequencies --    437.4374               462.9414               495.2296
 Red. masses --      6.4392                 3.1597                 5.1262
 Frc consts  --      0.7260                 0.3990                 0.7407
 IR Inten    --      6.4372                14.5675                10.9393

                     22                     23                     24
                      A                      A                      A
 Frequencies --    580.5894               626.2370               660.1993
 Red. masses --      5.4177                 3.6977                 3.1813
 Frc consts  --      1.0760                 0.8544                 0.8170
 IR Inten    --      8.3889                 5.8552                 3.2778

                     25                     26                     27
                      A                      A                      A
 Frequencies --    678.8498               712.1783               715.3308
 Red. masses --      3.4429                 5.8246                 3.2815
 Frc consts  --      0.9348                 1.7406                 0.9893
 IR Inten    --      2.3114                 5.3075                19.0080

                     28                     29                     30
                      A                      A                      A
 Frequencies --    730.0304               793.7360               811.8840
 Red. masses --      1.7292                 2.6249                 2.1407
 Frc consts  --      0.5430                 0.9744                 0.8314
 IR Inten    --     60.4712                21.6280                 1.0648

                     31                     32                     33
                      A                      A                      A
 Frequencies --    812.9735               864.9455               888.1145
 Red. masses --      2.5772                 3.4749                 1.8162
 Frc consts  --      1.0036                 1.5317                 0.8440
 IR Inten    --      6.2106                50.5203                10.1456

                     34                     35                     36
                      A                      A                      A
 Frequencies --    928.7347               946.1550               966.8227
 Red. masses --      2.1400                 2.8243                 1.9408
 Frc consts  --      1.0875                 1.4897                 1.0689
 IR Inten    --     13.6707                 1.5303                23.5917

                     37                     38                     39
                      A                      A                      A
 Frequencies --    970.8050               991.3341               994.7749
 Red. masses --      1.1919                 1.4401                 1.4386
 Frc consts  --      0.6619                 0.8338                 0.8387
 IR Inten    --      6.8936                12.0114                 2.7767

                     40                     41                     42
                      A                      A                      A
 Frequencies --    995.4227              1004.6226              1019.5451
 Red. masses --      1.4919                 1.8875                 2.1503
 Frc consts  --      0.8710                 1.1224                 1.3169
 IR Inten    --      0.6976                 1.4603                 0.2936

                     43                     44                     45
                      A                      A                      A
 Frequencies --   1046.5348              1086.1520              1174.0459
 Red. masses --      3.0028                 1.8782                 1.2988
 Frc consts  --      1.9377                 1.3055                 1.0548
 IR Inten    --     69.5208                 4.0425                13.7518

                     46                     47                     48
                      A                      A                      A
 Frequencies --   1215.4960              1230.9613              1260.9063
 Red. masses --      1.3344                 2.1944                 1.0916
 Frc consts  --      1.1616                 1.9591                 1.0226
 IR Inten    --      1.5204                59.7466                 2.0582

                     49                     50                     51
                      A                      A                      A
 Frequencies --   1277.6426              1307.4787              1351.5215
 Red. masses --      1.4968                 1.3446                 1.1636
 Frc consts  --      1.4396                 1.3543                 1.2523
 IR Inten    --     26.1524                 3.0581                 2.0021

                     52                     53                     54
                      A                      A                      A
 Frequencies --   1381.2078              1407.0355              1420.4114
 Red. masses --      1.5948                 1.1674                 1.3632
 Frc consts  --      1.7926                 1.3617                 1.6204
 IR Inten    --      3.9040                 2.6773                 4.1428

                     55                     56                     57
                      A                      A                      A
 Frequencies --   1427.0714              1462.7261              1463.0448
 Red. masses --      1.1006                 1.0563                 1.6746
 Frc consts  --      1.3205                 1.3315                 2.1119
 IR Inten    --      8.9007                 7.2744                 0.4275

                     58                     59                     60
                      A                      A                      A
 Frequencies --   1478.5043              1593.0727              1633.8406
 Red. masses --      1.0529                 7.2285                 7.9479
 Frc consts  --      1.3561                10.8085                12.5003
 IR Inten    --     13.9701                79.8152                18.0966

                     61                     62                     63
                      A                      A                      A
 Frequencies --   1666.8098              1675.6968              1827.0643
 Red. masses --      6.8502                 6.3423                 9.9048
 Frc consts  --     11.2132                10.4927                19.4807
 IR Inten    --     42.6135                14.1093               301.5594

                     64                     65                     66
                      A                      A                      A
 Frequencies --   2916.0887              3049.5478              3072.8579
 Red. masses --      1.0843                 1.0289                 1.0559
 Frc consts  --      5.4323                 5.6374                 5.8741
 IR Inten    --     46.1292                17.8688                 5.6442

                     67                     68                     69
                      A                      A                      A
 Frequencies --   3115.2348              3118.4723              3125.7086
 Red. masses --      1.0829                 1.0833                 1.0838
 Frc consts  --      6.1918                 6.2072                 6.2387
 IR Inten    --      5.5209                 3.3619                 5.8853

                     70                     71                     72
                      A                      A                      A
 Frequencies --   3139.3856              3141.1303              3145.1172
 Red. masses --      1.0877                 1.1074                 1.0908
 Frc consts  --      6.3162                 6.4376                 6.3573
 IR Inten    --     18.2321                 4.2033                42.3939

                     73                     74                     75
                      A                      A                      A
 Frequencies --   3145.8628              3148.7449              3151.4265
 Red. masses --      1.1039                 1.1086                 1.0909
 Frc consts  --      6.4364                 6.4756                 6.3835
 IR Inten    --      3.0487                 2.2695                17.7373

 - Thermochemistry -
 -------------------
 Temperature   298.150 Kelvin.  Pressure   1.00000 Atm.
 Atom     1 has atomic number  6 and mass  12.00000

 Molecular mass:   236.03296 amu.
 Principal axes and moments of inertia in atomic units:
                           1         2         3
     Eigenvalues --  2349.003726185.949246869.95906
           X            0.99998  -0.00604  -0.00196
           Y            0.00614   0.99859   0.05271
           Z            0.00164  -0.05272   0.99861
 This molecule is an asymmetric top.
 Rotational symmetry number  1.
 Warning -- assumption of classical behavior for rotation
           may cause significant error
 Rotational temperatures (Kelvin)      0.03687     0.01400     0.01261
 Rotational constants (GHZ):           0.76830     0.29175     0.26270
 Zero-point vibrational energy     532885.5 (Joules/Mol)
                                  127.36270 (Kcal/Mol)
 Warning -- explicit consideration of  22 degrees of freedom as
           vibrations may cause significant error
 Vibrational temperatures:     36.69    55.30    67.70    81.25   110.32
          (Kelvin)            129.94   151.14   227.55   235.78   263.65
                              280.49   346.21   375.11   408.37   422.95
                              510.81   530.80   579.80   629.37   666.07
                              712.52   835.34   901.02   949.88   976.71
                             1024.67  1029.20  1050.35  1142.01  1168.12
                             1169.69  1244.46  1277.80  1336.24  1361.31
                             1391.04  1396.77  1426.31  1431.26  1432.19
                             1445.43  1466.90  1505.73  1562.73  1689.19
                             1748.83  1771.08  1814.16  1838.24  1881.17
                             1944.54  1987.25  2024.41  2043.66  2053.24
                             2104.54  2105.00  2127.24  2292.08  2350.73
                             2398.17  2410.95  2628.74  4195.60  4387.62
                             4421.16  4482.13  4486.79  4497.20  4516.88
                             4519.39  4525.12  4526.19  4530.34  4534.20

 Zero-point correction=                           0.202965 (Hartree/Particle)
 Thermal correction to Energy=                    0.219270
 Thermal correction to Enthalpy=                  0.220215
 Thermal correction to Gibbs Free Energy=         0.156820
 Sum of electronic and zero-point Energies=          -1335.773564
 Sum of electronic and thermal Energies=             -1335.757259
 Sum of electronic and thermal Enthalpies=           -1335.756315
 Sum of electronic and thermal Free Energies=        -1335.819710

                     E (Thermal)             CV                S
                      KCal/Mol        Cal/Mol-Kelvin    Cal/Mol-Kelvin
 Total                  137.594             58.187            133.426
 Electronic               0.000              0.000              0.000
 Translational            0.889              2.981             42.278
 Rotational               0.889              2.981             32.968
 Vibrational            135.817             52.225             58.180
 Vibration     1          0.593              1.985              6.152
 Vibration     2          0.594              1.982              5.338
 Vibration     3          0.595              1.979              4.937
 Vibration     4          0.596              1.975              4.577
 Vibration     5          0.599              1.965              3.974
 Vibration     6          0.602              1.956              3.653
 Vibration     7          0.605              1.945              3.358
 Vibration     8          0.621              1.893              2.572
 Vibration     9          0.623              1.887              2.505
 Vibration    10          0.631              1.863              2.295
 Vibration    11          0.636              1.847              2.180
 Vibration    12          0.658              1.778              1.798
 Vibration    13          0.669              1.745              1.657
 Vibration    14          0.682              1.704              1.510
 Vibration    15          0.689              1.685              1.451
 Vibration    16          0.731              1.565              1.144
 Vibration    17          0.741              1.536              1.084
 Vibration    18          0.768              1.464              0.952
 Vibration    19          0.798              1.389              0.835
 Vibration    20          0.821              1.332              0.758
 Vibration    21          0.851              1.261              0.670
 Vibration    22          0.937              1.073              0.484

 Optimization completed.
    -- Stationary point found.
 Normal termination of Gaussian 16 at Wed May 17 21:32:22 2023.
