 Gaussian 16, Revision A.03,
 Gaussian 16:  ES64L-G16RevA.03 25-Dec-2016

 -----------------------------
 # opt freq b3lyp/6-31g(2df,p)
 -----------------------------

 -------------------
 Title Card Required
 -------------------
 Symbolic Z-matrix:
 Charge =  0 Multiplicity = 1

 SCF Done:  E(RB3LYP) =  -1940.22669493     A.U. after   23 cycles
 SCF Done:  E(RB3LYP) =  -1940.26838140     A.U. after   15 cycles
 SCF Done:  E(RB3LYP) =  -1940.30297556     A.U. after   18 cycles
 SCF Done:  E(RB3LYP) =  -1940.31543774     A.U. after   15 cycles
 SCF Done:  E(RB3LYP) =  -1940.33288128     A.U. after   17 cycles
 SCF Done:  E(RB3LYP) =  -1940.33814058     A.U. after   16 cycles
 SCF Done:  E(RB3LYP) =  -1940.33969351     A.U. after   14 cycles
 SCF Done:  E(RB3LYP) =  -1940.33959759     A.U. after   15 cycles
 SCF Done:  E(RB3LYP) =  -1940.34181739     A.U. after   15 cycles
 SCF Done:  E(RB3LYP) =  -1940.34203692     A.U. after   15 cycles
 SCF Done:  E(RB3LYP) =  -1940.40525536     A.U. after   14 cycles
 SCF Done:  E(RB3LYP) =  -1940.40706270     A.U. after   17 cycles
 SCF Done:  E(RB3LYP) =  -1940.40740048     A.U. after   13 cycles
 SCF Done:  E(RB3LYP) =  -1940.40750464     A.U. after   13 cycles
 SCF Done:  E(RB3LYP) =  -1940.40753278     A.U. after   12 cycles
 SCF Done:  E(RB3LYP) =  -1940.40755062     A.U. after   11 cycles
 SCF Done:  E(RB3LYP) =  -1940.40755364     A.U. after   10 cycles
 SCF Done:  E(RB3LYP) =  -1940.40755399     A.U. after    8 cycles
 SCF Done:  E(RB3LYP) =  -1940.40755414     A.U. after    7 cycles
 Optimization completed.
    -- Stationary point found.
 Normal termination of Gaussian 16 at Mon May 15 22:02:15 2023.

 ----------------------------------------------------------------------
 #N Geom=AllCheck Guess=TCheck SCRF=Check GenChk RB3LYP/6-31G(2df,p) Fr
 eq
 ----------------------------------------------------------------------

 Structure from the checkpoint file:  "CSCCqdSrC1dCdCCdCdC1SS.chk"
 -------------------
 Title Card Required
 -------------------
 Charge =  0 Multiplicity = 1

                         Standard orientation:
 ---------------------------------------------------------------------
 Center     Atomic      Atomic             Coordinates (Angstroms)
 Number     Number       Type             X           Y           Z
 ---------------------------------------------------------------------
      1          6           0       -4.494988    0.865290   -0.328915
      2         16           0       -3.279675   -0.452783   -0.640458
      3          6           0       -1.774519    0.392760    0.004086
      4          6           0       -0.651948   -0.557896    0.107878
      5         16           0       -0.636572   -2.158621    0.943871
      6          6           0        0.663397   -0.580758   -0.284791
      7          6           0        1.030807   -1.871842    0.290047
      8          6           0        2.261146   -2.414862    0.277716
      9          6           0        3.192374   -1.704533   -0.622302
     10          6           0        2.904027   -0.425188   -0.898855
     11          6           0        1.772976    0.265261   -0.665151
     12         16           0        1.908965    2.037378   -0.601039
     13         16           0        0.894675    2.665445    1.115590
     14          1           0       -5.459132    0.479539   -0.665992
     15          1           0       -4.257526    1.767309   -0.897981
     16          1           0       -4.559593    1.099130    0.736642
     17          1           0       -2.022425    0.798061    0.992865
     18          1           0       -1.496148    1.218350   -0.657318
     19          1           0        2.510673   -3.368942    0.727873
     20          1           0        3.944038   -2.286574   -1.149335
     21          1           0       -0.277810    3.021032    0.547547
 ---------------------------------------------------------------------

 SCF Done:  E(RB3LYP) =  -1940.40755414     A.U. after    1 cycles

 The electronic state is 1-A.
 Alpha  occ. eigenvalues --  -88.91381 -88.90506 -88.90266 -88.88700 -10.26180
 Alpha  occ. eigenvalues --  -10.24496 -10.23857 -10.23274 -10.22451 -10.21757
 Alpha  occ. eigenvalues --  -10.21302 -10.21261 -10.18906  -7.97439  -7.96832
 Alpha  occ. eigenvalues --   -7.96616  -7.94994  -5.93997  -5.93521  -5.93289
 Alpha  occ. eigenvalues --   -5.93062  -5.92966  -5.92940  -5.92796  -5.92321
 Alpha  occ. eigenvalues --   -5.92185  -5.91501  -5.91147  -5.90471  -0.91278
 Alpha  occ. eigenvalues --   -0.84708  -0.82128  -0.80590  -0.76176  -0.74492
 Alpha  occ. eigenvalues --   -0.69633  -0.68526  -0.64789  -0.62029  -0.56946
 Alpha  occ. eigenvalues --   -0.54180  -0.50827  -0.48561  -0.46560  -0.46242
 Alpha  occ. eigenvalues --   -0.45090  -0.44473  -0.43589  -0.42176  -0.40940
 Alpha  occ. eigenvalues --   -0.39634  -0.37935  -0.36754  -0.35522  -0.33859
 Alpha  occ. eigenvalues --   -0.33382  -0.31267  -0.29246  -0.26776  -0.24594
 Alpha  occ. eigenvalues --   -0.23914  -0.22576  -0.20675
 Alpha virt. eigenvalues --   -0.11113  -0.04651  -0.01871  -0.00828   0.01180
 Alpha virt. eigenvalues --    0.01703   0.02836   0.04878   0.06355   0.07528
 Alpha virt. eigenvalues --    0.08788   0.11361   0.12499   0.12583   0.13662

 Mulliken charges:
               1
     1  C   -0.385330
     2  S   -0.086426
     3  C   -0.340860
     4  C    0.123535
     5  S   -0.107862
     6  C    0.119866
     7  C    0.242357
     8  C   -0.277427
     9  C   -0.143012
    10  C   -0.068588
    11  C    0.032988
    12  S   -0.062969
    13  S   -0.207937
    14  H    0.157870
    15  H    0.145419
    16  H    0.145440
    17  H    0.157900
    18  H    0.149441
    19  H    0.123264
    20  H    0.123197
    21  H    0.159133
 Sum of Mulliken charges =   0.00000

 Dipole moment (field-independent basis, Debye):
    X=             -2.5011    Y=              0.4575    Z=              0.4223  Tot=              2.5774
 Quadrupole moment (field-independent basis, Debye-Ang):
   XX=            -97.2932   YY=           -101.3699   ZZ=           -107.5392
   XY=            -16.1733   XZ=             -0.9620   YZ=             -0.5540

  Exact polarizability: 246.129 -17.608 197.403 -24.917  -1.249 115.664
 Approx polarizability: 505.095 -34.760 340.978 -97.931  -8.578 230.341

                      1                      2                      3
                      A                      A                      A
 Frequencies --     29.2995                45.3171                53.2092
 Red. masses --      6.0620                 4.6767                 5.1154
 Frc consts  --      0.0031                 0.0057                 0.0085
 IR Inten    --      0.1910                 2.2177                 1.8773

                      4                      5                      6
                      A                      A                      A
 Frequencies --     61.6650                78.7654               133.2074
 Red. masses --      5.6564                14.7581                 8.2157
 Frc consts  --      0.0127                 0.0539                 0.0859
 IR Inten    --      2.2473                 0.7300                 2.4325

                      7                      8                      9
                      A                      A                      A
 Frequencies --    148.1628               179.3961               211.3831
 Red. masses --      3.0898                 1.1995                 7.5856
 Frc consts  --      0.0400                 0.0227                 0.1997
 IR Inten    --      2.3144                 0.9252                 1.4994

                     10                     11                     12
                      A                      A                      A
 Frequencies --    219.4624               234.7677               282.2210
 Red. masses --      4.3052                 4.1780                 2.8986
 Frc consts  --      0.1222                 0.1357                 0.1360
 IR Inten    --      2.1862                 4.1719                 6.6488

                     13                     14                     15
                      A                      A                      A
 Frequencies --    302.2471               325.5731               392.5699
 Red. masses --      2.4667                 2.1316                 5.9887
 Frc consts  --      0.1328                 0.1331                 0.5438
 IR Inten    --     23.7503                16.6636                 3.6128

                     16                     17                     18
                      A                      A                      A
 Frequencies --    416.9826               473.0334               486.0891
 Red. masses --      7.7391                 8.7742                 5.2916
 Frc consts  --      0.7928                 1.1568                 0.7367
 IR Inten    --      4.6988                10.4040                10.3897

                     19                     20                     21
                      A                      A                      A
 Frequencies --    503.5861               550.3203               566.4242
 Red. masses --      9.9521                 9.2512                 7.9632
 Frc consts  --      1.4870                 1.6507                 1.5053
 IR Inten    --     33.3541                46.9749                41.0127

                     22                     23                     24
                      A                      A                      A
 Frequencies --    620.5594               699.6818               709.2218
 Red. masses --      5.0273                 6.2170                 6.8790
 Frc consts  --      1.1406                 1.7932                 2.0386
 IR Inten    --     13.8676                35.0542                22.0354

                     25                     26                     27
                      A                      A                      A
 Frequencies --    724.0041               771.7991               804.9794
 Red. masses --      7.3430                 4.8423                 1.6771
 Frc consts  --      2.2678                 1.6995                 0.6403
 IR Inten    --      8.6876                30.9565                 2.9515

                     28                     29                     30
                      A                      A                      A
 Frequencies --    825.2129               858.1205               876.7805
 Red. masses --      3.4101                 1.1210                 1.5111
 Frc consts  --      1.3682                 0.4863                 0.6844
 IR Inten    --     19.5599                12.9173                 5.2304

                     31                     32                     33
                      A                      A                      A
 Frequencies --    902.7672               969.6062               980.7330
 Red. masses --      1.6710                 1.2517                 1.4037
 Frc consts  --      0.8024                 0.6933                 0.7955
 IR Inten    --     45.1300                 8.4451                 5.9410

                     34                     35                     36
                      A                      A                      A
 Frequencies --    992.2761              1022.8862              1073.3182
 Red. masses --      2.8727                 3.0038                 2.8826
 Frc consts  --      1.6665                 1.8517                 1.9565
 IR Inten    --      8.5755                31.4767                 3.3674

                     37                     38                     39
                      A                      A                      A
 Frequencies --   1161.6678              1191.7980              1230.4348
 Red. masses --      1.4195                 1.6928                 1.3805
 Frc consts  --      1.1286                 1.4166                 1.2315
 IR Inten    --      3.1939                 4.8767                45.4672

                     40                     41                     42
                      A                      A                      A
 Frequencies --   1254.6291              1331.5759              1352.3700
 Red. masses --      2.4560                 2.9714                 1.1616
 Frc consts  --      2.2777                 3.1042                 1.2517
 IR Inten    --     47.2994                20.8140                14.7214

                     43                     44                     45
                      A                      A                      A
 Frequencies --   1368.8925              1453.3059              1465.5404
 Red. masses --      2.5699                 1.1081                 1.0531
 Frc consts  --      2.8373                 1.3789                 1.3327
 IR Inten    --     63.9006                 6.1490                 6.5969

                     46                     47                     48
                      A                      A                      A
 Frequencies --   1480.5776              1573.9531              1610.7114
 Red. masses --      1.0530                 8.6417                 9.9801
 Frc consts  --      1.3600                12.6135                15.2554
 IR Inten    --     13.8987                91.3917                24.5992

                     49                     50                     51
                      A                      A                      A
 Frequencies --   1725.1620              2629.5643              3020.4229
 Red. masses --      9.9839                 1.0394                 1.0591
 Frc consts  --     17.5069                 4.2344                 5.6930
 IR Inten    --     15.9478                 5.0981                 7.3569

                     52                     53                     54
                      A                      A                      A
 Frequencies --   3042.0202              3085.7730              3125.3656
 Red. masses --      1.0300                 1.1023                 1.1074
 Frc consts  --      5.6158                 6.1844                 6.3733
 IR Inten    --     23.4983                 4.7857                 8.8013

                     55                     56                     57
                      A                      A                      A
 Frequencies --   3142.9179              3152.6417              3196.6234
 Red. masses --      1.1028                 1.0878                 1.0931
 Frc consts  --      6.4180                 6.3702                 6.5811
 IR Inten    --      3.1670                20.0780                10.4871

 - Thermochemistry -
 -------------------
 Temperature   298.150 Kelvin.  Pressure   1.00000 Atm.
 Atom     1 has atomic number  6 and mass  12.00000

 Molecular mass:   243.95089 amu.
 Principal axes and moments of inertia in atomic units:
                           1         2         3
     Eigenvalues --  2986.282224810.441606922.96986
           X            0.99743  -0.07163   0.00021
           Y            0.07163   0.99743   0.00119
           Z           -0.00029  -0.00117   1.00000
 This molecule is an asymmetric top.
 Rotational symmetry number  1.
 Warning -- assumption of classical behavior for rotation
           may cause significant error
 Rotational temperatures (Kelvin)      0.02900     0.01801     0.01251
 Rotational constants (GHZ):           0.60434     0.37517     0.26069
 Zero-point vibrational energy     365588.2 (Joules/Mol)
                                   87.37768 (Kcal/Mol)
 Warning -- explicit consideration of  22 degrees of freedom as
           vibrations may cause significant error
 Vibrational temperatures:     42.16    65.20    76.56    88.72   113.33
          (Kelvin)            191.66   213.17   258.11   304.13   315.76
                              337.78   406.05   434.87   468.43   564.82
                              599.94   680.59   699.37   724.55   791.79
                              814.96   892.85  1006.69  1020.41  1041.68
                             1110.45  1158.19  1187.30  1234.64  1261.49
                             1298.88  1395.05  1411.06  1427.66  1471.71
                             1544.27  1671.38  1714.73  1770.32  1805.13
                             1915.84  1945.76  1969.53  2090.98  2108.59
                             2130.22  2264.57  2317.45  2482.12  3783.36
                             4345.71  4376.79  4439.74  4496.70  4521.96
                             4535.95  4599.23

 Zero-point correction=                           0.139245 (Hartree/Particle)
 Thermal correction to Energy=                    0.153824
 Thermal correction to Enthalpy=                  0.154769
 Thermal correction to Gibbs Free Energy=         0.095205
 Sum of electronic and zero-point Energies=          -1940.268309
 Sum of electronic and thermal Energies=             -1940.253730
 Sum of electronic and thermal Enthalpies=           -1940.252786
 Sum of electronic and thermal Free Energies=        -1940.312349

                     E (Thermal)             CV                S
                      KCal/Mol        Cal/Mol-Kelvin    Cal/Mol-Kelvin
 Total                   96.526             51.325            125.362
 Electronic               0.000              0.000              0.000
 Translational            0.889              2.981             42.376
 Rotational               0.889              2.981             32.964
 Vibrational             94.749             45.363             50.022
 Vibration     1          0.593              1.984              5.876
 Vibration     2          0.595              1.979              5.012
 Vibration     3          0.596              1.976              4.694
 Vibration     4          0.597              1.973              4.403
 Vibration     5          0.600              1.963              3.921
 Vibration     6          0.613              1.920              2.899
 Vibration     7          0.618              1.905              2.696
 Vibration     8          0.629              1.868              2.335
 Vibration     9          0.643              1.823              2.032
 Vibration    10          0.647              1.811              1.964
 Vibration    11          0.655              1.788              1.842
 Vibration    12          0.681              1.707              1.520
 Vibration    13          0.694              1.669              1.404
 Vibration    14          0.710              1.624              1.282
 Vibration    15          0.760              1.486              0.990
 Vibration    16          0.780              1.433              0.902
 Vibration    17          0.830              1.310              0.729
 Vibration    18          0.842              1.281              0.694
 Vibration    19          0.859              1.242              0.649
 Vibration    20          0.906              1.139              0.544
 Vibration    21          0.922              1.104              0.511
 Vibration    22          0.981              0.989              0.416

                           ! Non-Optimized Parameters !
 Normal termination of Gaussian 16 at Mon May 15 23:08:59 2023.
