 Gaussian 16, Revision A.03,
 Gaussian 16:  ES64L-G16RevA.03 25-Dec-2016

 -----------------------------
 # opt freq b3lyp/6-31g(2df,p)
 -----------------------------

 -------------------
 Title Card Required
 -------------------
 Symbolic Z-matrix:
 Charge =  0 Multiplicity = 1

 SCF Done:  E(RB3LYP) =  -2180.59334702     A.U. after   17 cycles
 SCF Done:  E(RB3LYP) =  -2180.61139913     A.U. after   15 cycles
 SCF Done:  E(RB3LYP) =  -2180.61810577     A.U. after   15 cycles
 SCF Done:  E(RB3LYP) =  -2180.62221031     A.U. after   15 cycles
 SCF Done:  E(RB3LYP) =  -2180.62533798     A.U. after   15 cycles
 SCF Done:  E(RB3LYP) =  -2180.62804966     A.U. after   15 cycles
 SCF Done:  E(RB3LYP) =  -2180.62827060     A.U. after   14 cycles
 SCF Done:  E(RB3LYP) =  -2180.62828889     A.U. after   15 cycles
 SCF Done:  E(RB3LYP) =  -2180.62943327     A.U. after   15 cycles
 SCF Done:  E(RB3LYP) =  -2180.62987014     A.U. after   14 cycles
 SCF Done:  E(RB3LYP) =  -2180.63465264     A.U. after   12 cycles
 SCF Done:  E(RB3LYP) =  -2180.63465623     A.U. after   13 cycles
 SCF Done:  E(RB3LYP) =  -2180.63467068     A.U. after   11 cycles
 SCF Done:  E(RB3LYP) =  -2180.63467442     A.U. after   13 cycles
 SCF Done:  E(RB3LYP) =  -2180.63467830     A.U. after   11 cycles
 SCF Done:  E(RB3LYP) =  -2180.63467931     A.U. after   10 cycles
 SCF Done:  E(RB3LYP) =  -2180.63467987     A.U. after    8 cycles
 SCF Done:  E(RB3LYP) =  -2180.63468016     A.U. after    9 cycles
 SCF Done:  E(RB3LYP) =  -2180.63468026     A.U. after    8 cycles
 Optimization completed.
    -- Stationary point found.
 Normal termination of Gaussian 16 at Tue May 16 18:23:07 2023.

 ----------------------------------------------------------------------
 #N Geom=AllCheck Guess=TCheck SCRF=Check GenChk RB3LYP/6-31G(2df,p) Fr
 eq
 ----------------------------------------------------------------------

 Structure from the checkpoint file:  "CSCqCdCdCCqSrCNdNrqOSrSNdO.chk"
 -------------------
 Title Card Required
 -------------------
 Charge =  0 Multiplicity = 1

                         Standard orientation:
 ---------------------------------------------------------------------
 Center     Atomic      Atomic             Coordinates (Angstroms)
 Number     Number       Type             X           Y           Z
 ---------------------------------------------------------------------
      1          6           0       -1.172138   -2.821379    0.391063
      2         16           0       -1.912359   -1.407409    1.284827
      3          6           0       -1.909762    0.014359    0.111364
      4          6           0       -0.797927    0.087692   -0.909721
      5          6           0        0.407625   -0.400748   -0.819205
      6          6           0        1.630755   -0.846491   -0.757595
      7          6           0        2.771426   -0.093987   -0.113010
      8         16           0        3.483609   -1.047781    1.301872
      9          6           0        3.832767    0.295927   -1.152942
     10          7           0        4.831861    1.191373   -0.559355
     11          7           0        5.993364    0.809700   -0.763779
     12          8           0       -3.179719    0.202347   -0.526560
     13         16           0       -3.671743   -0.972164   -1.622859
     14         16           0       -1.824093    1.446421    1.284933
     15          7           0       -2.005015    2.772534   -0.027344
     16          8           0       -2.034361    3.871278    0.387628
     17          1           0       -1.541228   -3.701936    0.922660
     18          1           0       -0.085189   -2.793547    0.439524
     19          1           0       -1.515154   -2.854873   -0.642112
     20          1           0       -1.064986    0.694272   -1.773518
     21          1           0        1.874506   -1.817233   -1.188476
     22          1           0        2.393164    0.815328    0.359685
     23          1           0        4.062778   -2.010567    0.557317
     24          1           0        3.333230    0.873686   -1.941517
     25          1           0        4.306338   -0.585403   -1.604451
     26          1           0        6.614573    1.506173   -0.315645
     27          1           0       -4.189948   -1.847451   -0.728754
 ---------------------------------------------------------------------

 SCF Done:  E(RB3LYP) =  -2180.63468026     A.U. after    1 cycles

 The electronic state is 1-A.
 Alpha  occ. eigenvalues --  -88.92620 -88.90468 -88.89048 -88.88009 -19.23615
 Alpha  occ. eigenvalues --  -19.19475 -14.49081 -14.39404 -14.38266 -10.32293
 Alpha  occ. eigenvalues --  -10.24960 -10.22943 -10.22153 -10.22109 -10.21972
 Alpha  occ. eigenvalues --  -10.21857  -7.98592  -7.96792  -7.95330  -7.94603
 Alpha  occ. eigenvalues --   -5.95295  -5.94683  -5.93984  -5.93175  -5.92909
 Alpha  occ. eigenvalues --   -5.92406  -5.91838  -5.91438  -5.91057  -5.90858
 Alpha  occ. eigenvalues --   -5.90721  -5.90105  -1.20850  -1.06714  -1.03918
 Alpha  occ. eigenvalues --   -0.85774  -0.84203  -0.79587  -0.78195  -0.75598
 Alpha  occ. eigenvalues --   -0.73900  -0.72505  -0.68540  -0.65312  -0.63407
 Alpha  occ. eigenvalues --   -0.59989  -0.59089  -0.54652  -0.52002  -0.51611
 Alpha  occ. eigenvalues --   -0.50045  -0.49365  -0.48770  -0.47865  -0.47452
 Alpha  occ. eigenvalues --   -0.45250  -0.45122  -0.43756  -0.43274  -0.42661
 Alpha  occ. eigenvalues --   -0.42295  -0.41338  -0.40866  -0.37603  -0.36739
 Alpha  occ. eigenvalues --   -0.35362  -0.34269  -0.34027  -0.30806  -0.29334
 Alpha  occ. eigenvalues --   -0.27906  -0.26576  -0.25707  -0.25179  -0.24563
 Alpha  occ. eigenvalues --   -0.23857  -0.23502
 Alpha virt. eigenvalues --   -0.09644  -0.05228  -0.04287  -0.03728  -0.01559
 Alpha virt. eigenvalues --   -0.00986   0.02318   0.02678   0.03960   0.05033
 Alpha virt. eigenvalues --    0.06027   0.07935   0.09745   0.10632   0.10807

 Mulliken charges:
               1
     1  C   -0.407022
     2  S   -0.124677
     3  C    0.262209
     4  C   -0.358527
     5  C    0.406382
     6  C   -0.290359
     7  C   -0.053983
     8  S   -0.251097
     9  C   -0.113236
    10  N   -0.099286
    11  N   -0.271369
    12  O   -0.274388
    13  S   -0.084720
    14  S    0.018971
    15  N    0.060705
    16  O   -0.142624
    17  H    0.153043
    18  H    0.163741
    19  H    0.167696
    20  H    0.151192
    21  H    0.125701
    22  H    0.145126
    23  H    0.156111
    24  H    0.134471
    25  H    0.109022
    26  H    0.250071
    27  H    0.166845
 Sum of Mulliken charges =  -0.00000

 Dipole moment (field-independent basis, Debye):
    X=              1.4879    Y=             -2.7088    Z=             -2.2663  Tot=              3.8324
 Quadrupole moment (field-independent basis, Debye-Ang):
   XX=           -124.2469   YY=           -115.1511   ZZ=           -125.3578
   XY=              8.1293   XZ=             -2.0000   YZ=              1.2023

  Exact polarizability: 236.916  -8.577 199.565  11.400  -4.456 147.647
 Approx polarizability: 321.873 -33.943 359.279  20.581 -26.793 266.585

                      1                      2                      3
                      A                      A                      A
 Frequencies --     11.4903                24.8566                32.7891
 Red. masses --      9.8035                 8.1622                10.7036
 Frc consts  --      0.0008                 0.0030                 0.0068
 IR Inten    --      0.4524                 0.4029                 0.0255

                      4                      5                      6
                      A                      A                      A
 Frequencies --     50.3390                66.6091                78.5879
 Red. masses --      9.6456                 5.3548                 6.3723
 Frc consts  --      0.0144                 0.0140                 0.0232
 IR Inten    --      0.3268                 1.1098                 0.2070

                      7                      8                      9
                      A                      A                      A
 Frequencies --     83.3009                92.3528                96.2564
 Red. masses --     10.1140                 4.3955                 5.1710
 Frc consts  --      0.0413                 0.0221                 0.0282
 IR Inten    --      1.7684                 1.4160                 0.2661

                     10                     11                     12
                      A                      A                      A
 Frequencies --    105.8511               138.7632               153.2669
 Red. masses --      2.7771                 2.3248                 2.6596
 Frc consts  --      0.0183                 0.0264                 0.0368
 IR Inten    --      1.5633                 0.5877                 1.6286

                     13                     14                     15
                      A                      A                      A
 Frequencies --    161.4693               175.8770               189.4540
 Red. masses --      3.5011                 1.4174                 3.9465
 Frc consts  --      0.0538                 0.0258                 0.0835
 IR Inten    --      1.7972                14.8487                 3.7977

                     16                     17                     18
                      A                      A                      A
 Frequencies --    200.8487               209.1867               241.9933
 Red. masses --      7.0571                 7.7263                 3.5450
 Frc consts  --      0.1677                 0.1992                 0.1223
 IR Inten    --      3.4665                 2.1680                 0.5801

                     19                     20                     21
                      A                      A                      A
 Frequencies --    266.7438               278.3602               308.4389
 Red. masses --      1.5435                 2.7643                 8.7555
 Frc consts  --      0.0647                 0.1262                 0.4908
 IR Inten    --     18.6350                 0.0597                14.6220

                     22                     23                     24
                      A                      A                      A
 Frequencies --    326.4895               350.6590               361.9929
 Red. masses --      7.1194                 6.0802                 2.5844
 Frc consts  --      0.4471                 0.4405                 0.1995
 IR Inten    --     22.7159                 5.9767                 3.1773

                     25                     26                     27
                      A                      A                      A
 Frequencies --    382.5120               405.4561               433.2493
 Red. masses --      8.4539                 7.1781                 5.1592
 Frc consts  --      0.7288                 0.6953                 0.5706
 IR Inten    --     35.0423                14.0398                 8.5999

                     28                     29                     30
                      A                      A                      A
 Frequencies --    508.6509               549.1651               584.8128
 Red. masses --      3.7106                 7.6064                 3.9873
 Frc consts  --      0.5656                 1.3516                 0.8035
 IR Inten    --      7.9327                 9.2716                15.1381

                     31                     32                     33
                      A                      A                      A
 Frequencies --    599.9796               659.1194               677.1661
 Red. masses --      5.9878                 4.4937                 5.1058
 Frc consts  --      1.2700                 1.1502                 1.3795
 IR Inten    --     17.6535                68.2939                51.3947

                     34                     35                     36
                      A                      A                      A
 Frequencies --    696.5277               731.8700               753.8435
 Red. masses --      6.4076                 4.8028                 3.5981
 Frc consts  --      1.8316                 1.5157                 1.2047
 IR Inten    --      2.1628                17.4382                13.1304

                     37                     38                     39
                      A                      A                      A
 Frequencies --    844.8283               866.4723               885.1750
 Red. masses --      2.6422                 1.4127                 1.3741
 Frc consts  --      1.1111                 0.6249                 0.6343
 IR Inten    --     52.0038                42.7673                13.5173

                     40                     41                     42
                      A                      A                      A
 Frequencies --    900.0448               912.2318               960.4869
 Red. masses --      3.9315                 1.3200                 3.4579
 Frc consts  --      1.8764                 0.6472                 1.8795
 IR Inten    --    165.4823                21.7025                10.8591

                     43                     44                     45
                      A                      A                      A
 Frequencies --    967.2619               980.8968              1008.4404
 Red. masses --      1.2836                 1.3119                 1.3254
 Frc consts  --      0.7076                 0.7437                 0.7942
 IR Inten    --      4.0827                17.1930                25.8999

                     46                     47                     48
                      A                      A                      A
 Frequencies --   1031.0742              1051.3486              1079.4551
 Red. masses --      3.6707                 1.6984                 3.8007
 Frc consts  --      2.2992                 1.1061                 2.6093
 IR Inten    --      3.3155                 5.2997                46.4638

                     49                     50                     51
                      A                      A                      A
 Frequencies --   1091.7085              1175.7069              1213.9496
 Red. masses --      2.9770                 1.5360                 1.2053
 Frc consts  --      2.0905                 1.2509                 1.0465
 IR Inten    --     18.3656                 3.2372                11.5547

                     52                     53                     54
                      A                      A                      A
 Frequencies --   1238.2053              1295.1020              1305.5117
 Red. masses --      1.1549                 1.1827                 1.2270
 Frc consts  --      1.0432                 1.1688                 1.2321
 IR Inten    --      7.2886                 9.6128                 6.7513

                     55                     56                     57
                      A                      A                      A
 Frequencies --   1341.4044              1359.3385              1445.8110
 Red. masses --      1.1514                 1.3938                 2.9042
 Frc consts  --      1.2207                 1.5174                 3.5768
 IR Inten    --      4.7294                 4.0325                 1.8400

                     58                     59                     60
                      A                      A                      A
 Frequencies --   1462.1847              1468.3945              1483.4916
 Red. masses --      1.0540                 1.0872                 1.0535
 Frc consts  --      1.3277                 1.3811                 1.3660
 IR Inten    --      5.0943                 2.2521                 7.3793

                     61                     62                     63
                      A                      A                      A
 Frequencies --   1493.3216              1659.7343              1707.2468
 Red. masses --      1.2902                10.3232                14.9005
 Frc consts  --      1.6952                16.7549                25.5884
 IR Inten    --     26.0576                 3.6300               658.0976

                     64                     65                     66
                      A                      A                      A
 Frequencies --   2061.3473              2605.1730              2662.8437
 Red. masses --     10.8289                 1.0392                 1.0384
 Frc consts  --     27.1104                 4.1554                 4.3382
 IR Inten    --     40.8481                 6.7941                 2.7800

                     67                     68                     69
                      A                      A                      A
 Frequencies --   3011.1271              3063.0405              3065.8973
 Red. masses --      1.0554                 1.0308                 1.1047
 Frc consts  --      5.6381                 5.6979                 6.1183
 IR Inten    --     13.8265                12.6551                10.0980

                     70                     71                     72
                      A                      A                      A
 Frequencies --   3096.4630              3126.1562              3137.7620
 Red. masses --      1.0858                 1.0872                 1.0865
 Frc consts  --      6.1341                 6.2600                 6.3025
 IR Inten    --      1.3941                 3.6598                 0.2968

                     73                     74                     75
                      A                      A                      A
 Frequencies --   3151.3115              3179.2590              3252.7186
 Red. masses --      1.1012                 1.1079                 1.0738
 Frc consts  --      6.4433                 6.5978                 6.6937
 IR Inten    --      3.5433                 1.9964                25.7450

 - Thermochemistry -
 -------------------
 Temperature   298.150 Kelvin.  Pressure   1.00000 Atm.
 Atom     1 has atomic number  6 and mass  12.00000

 Molecular mass:   296.97341 amu.
 Principal axes and moments of inertia in atomic units:
                           1         2         3
     Eigenvalues --  3729.16078********************
           X            0.99995   0.00893  -0.00439
           Y           -0.00896   0.99994  -0.00593
           Z            0.00434   0.00597   0.99997
 This molecule is an asymmetric top.
 Rotational symmetry number  1.
 Warning -- assumption of classical behavior for rotation
           may cause significant error
 Rotational temperatures (Kelvin)      0.02323     0.00817     0.00719
 Rotational constants (GHZ):           0.48395     0.17019     0.14977
 Zero-point vibrational energy     470313.4 (Joules/Mol)
                                  112.40759 (Kcal/Mol)
 Warning -- explicit consideration of  31 degrees of freedom as
           vibrations may cause significant error
 Vibrational temperatures:     16.53    35.76    47.18    72.43    95.84
          (Kelvin)            113.07   119.85   132.88   138.49   152.30
                              199.65   220.52   232.32   253.05   272.58
                              288.98   300.97   348.17   383.78   400.50
                              443.77   469.75   504.52   520.83   550.35
                              583.36   623.35   731.84   790.13   841.42
                              863.24   948.33   974.29  1002.15  1053.00
                             1084.61  1215.52  1246.66  1273.57  1294.96
                             1312.50  1381.93  1391.67  1411.29  1450.92
                             1483.49  1512.66  1553.10  1570.73  1691.58
                             1746.60  1781.50  1863.36  1878.34  1929.98
                             1955.78  2080.20  2103.76  2112.69  2134.41
                             2148.56  2387.99  2456.35  2965.82  3748.26
                             3831.24  4332.34  4407.03  4411.14  4455.12
                             4497.84  4514.54  4534.03  4574.24  4679.94

 Zero-point correction=                           0.179133 (Hartree/Particle)
 Thermal correction to Energy=                    0.200053
 Thermal correction to Enthalpy=                  0.200997
 Thermal correction to Gibbs Free Energy=         0.125362
 Sum of electronic and zero-point Energies=          -2180.455547
 Sum of electronic and thermal Energies=             -2180.434627
 Sum of electronic and thermal Enthalpies=           -2180.433683
 Sum of electronic and thermal Free Energies=        -2180.509319

                     E (Thermal)             CV                S
                      KCal/Mol        Cal/Mol-Kelvin    Cal/Mol-Kelvin
 Total                  125.535             70.452            159.189
 Electronic               0.000              0.000              0.000
 Translational            0.889              2.981             42.963
 Rotational               0.889              2.981             34.521
 Vibrational            123.758             64.491             81.706
 Vibration     1          0.593              1.987              7.735
 Vibration     2          0.593              1.985              6.203
 Vibration     3          0.594              1.983              5.653
 Vibration     4          0.595              1.977              4.804
 Vibration     5          0.598              1.970              4.251
 Vibration     6          0.600              1.964              3.926
 Vibration     7          0.600              1.961              3.812
 Vibration     8          0.602              1.955              3.610
 Vibration     9          0.603              1.952              3.529
 Vibration    10          0.605              1.945              3.344
 Vibration    11          0.614              1.915              2.821
 Vibration    12          0.619              1.899              2.631
 Vibration    13          0.622              1.890              2.533
 Vibration    14          0.628              1.872              2.372
 Vibration    15          0.633              1.854              2.233
 Vibration    16          0.638              1.839              2.125
 Vibration    17          0.642              1.827              2.051
 Vibration    18          0.658              1.776              1.788
 Vibration    19          0.672              1.734              1.617
 Vibration    20          0.679              1.714              1.544
 Vibration    21          0.698              1.658              1.371
 Vibration    22          0.710              1.623              1.277
 Vibration    23          0.728              1.574              1.163
 Vibration    24          0.736              1.551              1.114
 Vibration    25          0.752              1.507              1.029
 Vibration    26          0.770              1.458              0.943
 Vibration    27          0.794              1.398              0.848
 Vibration    28          0.864              1.231              0.637
 Vibration    29          0.904              1.142              0.546
 Vibration    30          0.942              1.064              0.477
 Vibration    31          0.958              1.032              0.450

 Optimization completed.
    -- Stationary point found.
 Normal termination of Gaussian 16 at Tue May 16 20:16:18 2023.
