 Gaussian 16, Revision A.03,
 Gaussian 16:  ES64L-G16RevA.03 25-Dec-2016

 -----------------------------
 # opt freq b3lyp/6-31g(2df,p)
 -----------------------------

 -------------------
 Title Card Required
 -------------------
 Symbolic Z-matrix:
 Charge =  0 Multiplicity = 1

 SCF Done:  E(RB3LYP) =  -2360.47181049     A.U. after   20 cycles
 SCF Done:  E(RB3LYP) =  -2360.51849366     A.U. after   15 cycles
 SCF Done:  E(RB3LYP) =  -2360.54842238     A.U. after   15 cycles
 SCF Done:  E(RB3LYP) =  -2360.57142784     A.U. after   14 cycles
 SCF Done:  E(RB3LYP) =  -2360.58651754     A.U. after   14 cycles
 SCF Done:  E(RB3LYP) =  -2360.59764513     A.U. after   16 cycles
 SCF Done:  E(RB3LYP) =  -2360.60559468     A.U. after   13 cycles
 SCF Done:  E(RB3LYP) =  -2360.61129459     A.U. after   14 cycles
 SCF Done:  E(RB3LYP) =  -2360.61830024     A.U. after   14 cycles
 SCF Done:  E(RB3LYP) =  -2360.62254208     A.U. after   14 cycles
 SCF Done:  E(RB3LYP) =  -2360.63911115     A.U. after   13 cycles
 SCF Done:  E(RB3LYP) =  -2360.63915419     A.U. after   11 cycles
 SCF Done:  E(RB3LYP) =  -2360.63917008     A.U. after   11 cycles
 SCF Done:  E(RB3LYP) =  -2360.63917513     A.U. after    9 cycles
 SCF Done:  E(RB3LYP) =  -2360.63917837     A.U. after    9 cycles
 SCF Done:  E(RB3LYP) =  -2360.63918082     A.U. after    9 cycles
 SCF Done:  E(RB3LYP) =  -2360.63918206     A.U. after    8 cycles
 SCF Done:  E(RB3LYP) =  -2360.63918244     A.U. after    8 cycles
 SCF Done:  E(RB3LYP) =  -2360.63918253     A.U. after    7 cycles
 Optimization completed.
    -- Stationary point found.
 Normal termination of Gaussian 16 at Fri May 19 18:58:19 2023.

 ----------------------------------------------------------------------
 #N Geom=AllCheck Guess=TCheck SCRF=Check GenChk RB3LYP/6-31G(2df,p) Fr
 eq
 ----------------------------------------------------------------------

 Structure from the checkpoint file:  "CSN1CCqCrqCrCd[SH]SC[SH]dCS1.chk"
 -------------------
 Title Card Required
 -------------------
 Charge =  0 Multiplicity = 1

                         Standard orientation:
 ---------------------------------------------------------------------
 Center     Atomic      Atomic             Coordinates (Angstroms)
 Number     Number       Type             X           Y           Z
 ---------------------------------------------------------------------
      1          6           0       -3.872817   -1.771656   -0.175788
      2         16           0       -2.604933   -0.870311   -1.136998
      3          7           0       -1.296897   -0.665659   -0.068189
      4          6           0       -1.424008    0.308991    1.017551
      5          6           0       -1.263179    1.808180    0.634015
      6          6           0       -2.593479    2.414254    0.103607
      7          6           0       -0.883971    2.569925    1.931566
      8          6           0       -0.222940    2.124928   -0.408659
      9         16           0        0.740135    1.117231   -1.297365
     10         16           0        3.440095    0.727776   -0.901000
     11          6           0        3.706585   -0.649789    0.239941
     12         16           0        2.196448   -1.089088    1.222461
     13          6           0        1.240540   -1.891552    0.009362
     14         16           0       -0.379262   -2.203956    0.346545
     15          1           0       -4.183659   -1.215939    0.712212
     16          1           0       -3.514814   -2.764100    0.104097
     17          1           0       -4.733032   -1.875253   -0.843588
     18          1           0       -0.638934    0.057867    1.736427
     19          1           0       -2.375158    0.213041    1.563412
     20          1           0       -3.363837    2.318817    0.876293
     21          1           0       -2.936876    1.897607   -0.792503
     22          1           0       -2.475547    3.479715   -0.120730
     23          1           0       -1.624490    2.366128    2.712260
     24          1           0       -0.863521    3.651389    1.764171
     25          1           0        0.097367    2.261554    2.304944
     26          1           0        0.006420    3.184363   -0.487633
     27          1           0        1.379023    2.099328   -1.968411
     28          1           0        4.472378   -0.404077    0.978730
     29          1           0        3.966212   -1.588034   -0.256715
     30          1           0        1.890582    0.261292    1.345265
     31          1           0        1.576039   -1.670210   -0.998750
 ---------------------------------------------------------------------

 SCF Done:  E(RB3LYP) =  -2360.63918253     A.U. after    1 cycles

 The electronic state is 1-A.
 Alpha  occ. eigenvalues --  -88.96527 -88.95068 -88.88552 -88.87816 -88.82429
 Alpha  occ. eigenvalues --  -14.34723 -10.25947 -10.24417 -10.23510 -10.22465
 Alpha  occ. eigenvalues --  -10.20122 -10.20115 -10.19336 -10.18141  -8.02310
 Alpha  occ. eigenvalues --   -8.00862  -7.94420  -7.93528  -7.88952  -5.98615
 Alpha  occ. eigenvalues --   -5.98383  -5.98171  -5.97169  -5.97084  -5.96614
 Alpha  occ. eigenvalues --   -5.91031  -5.90570  -5.90172  -5.89894  -5.89633
 Alpha  occ. eigenvalues --   -5.89052  -5.85423  -5.84955  -5.84558  -0.91537
 Alpha  occ. eigenvalues --   -0.86664  -0.84763  -0.81648  -0.76224  -0.74523
 Alpha  occ. eigenvalues --   -0.70680  -0.70385  -0.67862  -0.66519  -0.61128
 Alpha  occ. eigenvalues --   -0.59174  -0.56627  -0.54686  -0.51727  -0.48384
 Alpha  occ. eigenvalues --   -0.47371  -0.46195  -0.45314  -0.44504  -0.43843
 Alpha  occ. eigenvalues --   -0.42477  -0.41670  -0.41590  -0.40767  -0.40698
 Alpha  occ. eigenvalues --   -0.39436  -0.38822  -0.37599  -0.36945  -0.36627
 Alpha  occ. eigenvalues --   -0.35825  -0.34641  -0.33359  -0.32403  -0.30919
 Alpha  occ. eigenvalues --   -0.24549  -0.23044  -0.20848  -0.20770  -0.20251
 Alpha  occ. eigenvalues --   -0.18610
 Alpha virt. eigenvalues --   -0.09826  -0.02057  -0.00457   0.01402   0.03476
 Alpha virt. eigenvalues --    0.05109   0.06143   0.06814   0.07241   0.07481
 Alpha virt. eigenvalues --    0.08872   0.09120   0.10979   0.12179   0.12644

 Mulliken charges:
               1
     1  C   -0.387966
     2  S   -0.084103
     3  N   -0.146100
     4  C   -0.178163
     5  C    0.184685
     6  C   -0.405484
     7  C   -0.409853
     8  C   -0.059934
     9  S    0.090463
    10  S   -0.458676
    11  C   -0.207108
    12  S    0.099864
    13  C   -0.214971
    14  S   -0.133154
    15  H    0.133259
    16  H    0.159778
    17  H    0.143275
    18  H    0.114779
    19  H    0.103006
    20  H    0.120527
    21  H    0.162341
    22  H    0.109620
    23  H    0.129366
    24  H    0.119552
    25  H    0.126302
    26  H    0.145698
    27  H    0.174818
    28  H    0.157322
    29  H    0.164794
    30  H    0.107942
    31  H    0.138123
 Sum of Mulliken charges =  -0.00000

 Dipole moment (field-independent basis, Debye):
    X=             -2.5533    Y=              4.0866    Z=              2.2328  Tot=              5.3109
 Quadrupole moment (field-independent basis, Debye-Ang):
   XX=           -122.9623   YY=           -120.6275   ZZ=           -121.9847
   XY=             -5.1609   XZ=              2.6934   YZ=             -1.0477

  Exact polarizability: 299.472 -15.690 196.725  -5.423  -0.129 154.394
 Approx polarizability: 585.641 -77.387 343.946 -16.527   3.538 281.773

                      1                      2                      3
                      A                      A                      A
 Frequencies --     28.9686                44.4225                59.0038
 Red. masses --      7.1310                 4.7199                 4.7859
 Frc consts  --      0.0035                 0.0055                 0.0098
 IR Inten    --      0.7203                 3.9208                 1.6129

                      4                      5                      6
                      A                      A                      A
 Frequencies --     73.0220                95.1133               114.2263
 Red. masses --      3.0980                 5.8315                 6.2628
 Frc consts  --      0.0097                 0.0311                 0.0481
 IR Inten    --      2.1841                 2.8981                 3.7218

                      7                      8                      9
                      A                      A                      A
 Frequencies --    123.3034               135.4100               153.5818
 Red. masses --      5.2431                 4.1615                 2.0686
 Frc consts  --      0.0470                 0.0450                 0.0287
 IR Inten    --      5.3720                 1.5838                 2.0885

                     10                     11                     12
                      A                      A                      A
 Frequencies --    158.0657               165.6924               175.0747
 Red. masses --      5.8209                 1.9021                 3.1214
 Frc consts  --      0.0857                 0.0308                 0.0564
 IR Inten    --     24.4612                 1.9211                 7.4649

                     13                     14                     15
                      A                      A                      A
 Frequencies --    208.9203               232.1816               239.1748
 Red. masses --      3.4300                 1.2294                 4.3018
 Frc consts  --      0.0882                 0.0390                 0.1450
 IR Inten    --      1.0750                 0.6174                 2.8994

                     16                     17                     18
                      A                      A                      A
 Frequencies --    253.4365               257.1152               278.8350
 Red. masses --      3.8108                 1.6424                 3.7794
 Frc consts  --      0.1442                 0.0640                 0.1731
 IR Inten    --      3.1313                 3.4116                16.0951

                     19                     20                     21
                      A                      A                      A
 Frequencies --    302.4267               318.6085               331.8684
 Red. masses --      1.8891                 3.8069                 3.4584
 Frc consts  --      0.1018                 0.2277                 0.2244
 IR Inten    --      3.6038                 1.7816                11.2402

                     22                     23                     24
                      A                      A                      A
 Frequencies --    370.0067               394.9679               410.6343
 Red. masses --      7.8122                 2.8133                 2.6551
 Frc consts  --      0.6301                 0.2586                 0.2638
 IR Inten    --     10.5115                29.0577                 8.1983

                     25                     26                     27
                      A                      A                      A
 Frequencies --    429.8284               469.9605               562.2231
 Red. masses --      2.7056                 3.4597                 1.9205
 Frc consts  --      0.2945                 0.4502                 0.3577
 IR Inten    --      9.1610                30.4087                69.9388

                     28                     29                     30
                      A                      A                      A
 Frequencies --    598.5996               605.2087               635.8907
 Red. masses --      5.2174                 3.2801                 1.4271
 Frc consts  --      1.1015                 0.7079                 0.3400
 IR Inten    --     19.8210                 9.1677                18.3587

                     31                     32                     33
                      A                      A                      A
 Frequencies --    668.7363               691.0360               705.4277
 Red. masses --      4.7613                 5.1155                 5.0225
 Frc consts  --      1.2545                 1.4393                 1.4726
 IR Inten    --      1.0860                62.8944                15.6312

                     34                     35                     36
                      A                      A                      A
 Frequencies --    747.2162               762.9948               816.9189
 Red. masses --      2.7966                 2.4376                 1.7189
 Frc consts  --      0.9200                 0.8361                 0.6759
 IR Inten    --     72.4939                 6.7034                 0.5616

                     37                     38                     39
                      A                      A                      A
 Frequencies --    822.8340               872.5631               889.2822
 Red. masses --      1.4501                 2.3281                 2.1388
 Frc consts  --      0.5785                 1.0444                 0.9966
 IR Inten    --     37.6720                 8.1365                87.7857

                     40                     41                     42
                      A                      A                      A
 Frequencies --    912.5169               921.5185               933.1839
 Red. masses --      1.4636                 1.7725                 1.9592
 Frc consts  --      0.7180                 0.8868                 1.0052
 IR Inten    --      2.8199                 1.9901                 2.7486

                     43                     44                     45
                      A                      A                      A
 Frequencies --    949.5833               958.1066               960.2691
 Red. masses --      1.2052                 1.3400                 1.4044
 Frc consts  --      0.6403                 0.7247                 0.7630
 IR Inten    --      0.8964                 5.3939                20.3294

                     46                     47                     48
                      A                      A                      A
 Frequencies --    975.1593              1015.0405              1047.5494
 Red. masses --      1.5228                 1.4585                 1.5557
 Frc consts  --      0.8532                 0.8853                 1.0058
 IR Inten    --      2.1763                 5.9678                 4.8271

                     49                     50                     51
                      A                      A                      A
 Frequencies --   1085.4482              1088.4623              1131.2214
 Red. masses --      5.0726                 1.6554                 1.0474
 Frc consts  --      3.5213                 1.1555                 0.7897
 IR Inten    --     27.4770                17.0944                 0.8781

                     52                     53                     54
                      A                      A                      A
 Frequencies --   1152.9671              1180.3351              1206.0197
 Red. masses --      2.7351                 1.8845                 1.1277
 Frc consts  --      2.1422                 1.5469                 0.9664
 IR Inten    --      3.2051                 3.4687                29.4943

                     55                     56                     57
                      A                      A                      A
 Frequencies --   1223.1995              1274.4179              1309.6256
 Red. masses --      1.1078                 2.1823                 1.4050
 Frc consts  --      0.9766                 2.0883                 1.4198
 IR Inten    --     26.3491                 2.9453                 6.0058

                     58                     59                     60
                      A                      A                      A
 Frequencies --   1330.4904              1348.0903              1384.8610
 Red. masses --      1.1660                 1.3285                 1.2888
 Frc consts  --      1.2161                 1.4225                 1.4563
 IR Inten    --      2.0461                 2.6636                 2.7038

                     61                     62                     63
                      A                      A                      A
 Frequencies --   1392.9323              1426.9384              1437.8444
 Red. masses --      1.1914                 1.2572                 1.0803
 Frc consts  --      1.3620                 1.5083                 1.3158
 IR Inten    --      3.7585                 9.9689                 1.3255

                     64                     65                     66
                      A                      A                      A
 Frequencies --   1456.5713              1474.7388              1477.1505
 Red. masses --      1.0550                 1.0619                 1.0548
 Frc consts  --      1.3188                 1.3607                 1.3560
 IR Inten    --      4.8629                 1.3665                 5.3876

                     67                     68                     69
                      A                      A                      A
 Frequencies --   1482.0747              1489.8983              1497.7917
 Red. masses --      1.0492                 1.0613                 1.0523
 Frc consts  --      1.3578                 1.3880                 1.3909
 IR Inten    --      1.9088                 9.3575                 4.4245

                     70                     71                     72
                      A                      A                      A
 Frequencies --   1508.1290              2254.8858              2631.9132
 Red. masses --      1.0641                 1.0395                 1.0390
 Frc consts  --      1.4260                 3.1141                 4.2406
 IR Inten    --     12.6065               166.7010                12.7571

                     73                     74                     75
                      A                      A                      A
 Frequencies --   2981.6206              3028.9464              3033.5266
 Red. masses --      1.0702                 1.0345                 1.0370
 Frc consts  --      5.6056                 5.5921                 5.6226
 IR Inten    --     37.3918                11.3381                46.8212

                     76                     77                     78
                      A                      A                      A
 Frequencies --   3039.7945              3059.6788              3075.9793
 Red. masses --      1.0290                 1.0538                 1.0901
 Frc consts  --      5.6023                 5.8126                 6.0768
 IR Inten    --     22.8057                13.8566                 6.7425

                     79                     80                     81
                      A                      A                      A
 Frequencies --   3095.8667              3104.2971              3108.2032
 Red. masses --      1.1016                 1.1015                 1.1026
 Frc consts  --      6.2209                 6.2539                 6.2760
 IR Inten    --     10.6239                26.7152                23.2848

                     82                     83                     84
                      A                      A                      A
 Frequencies --   3121.8066              3124.6143              3137.9857
 Red. masses --      1.1108                 1.1036                 1.1063
 Frc consts  --      6.3781                 6.3485                 6.4186
 IR Inten    --      0.6502                 9.1760                 5.4054

                     85                     86                     87
                      A                      A                      A
 Frequencies --   3151.4046              3161.2823              3163.1774
 Red. masses --      1.0990                 1.0873                 1.0854
 Frc consts  --      6.4305                 6.4023                 6.3986
 IR Inten    --      3.6683                 3.1539                 1.9362

 - Thermochemistry -
 -------------------
 Temperature   298.150 Kelvin.  Pressure   1.00000 Atm.
 Atom     1 has atomic number  6 and mass  12.00000

 Molecular mass:   286.99646 amu.
 Principal axes and moments of inertia in atomic units:
                           1         2         3
     Eigenvalues --  3419.079846049.671647546.30665
           X            0.99981  -0.01759  -0.00810
           Y            0.01789   0.99914   0.03733
           Z            0.00744  -0.03747   0.99927
 This molecule is an asymmetric top.
 Rotational symmetry number  1.
 Warning -- assumption of classical behavior for rotation
           may cause significant error
 Rotational temperatures (Kelvin)      0.02533     0.01432     0.01148
 Rotational constants (GHZ):           0.52784     0.29832     0.23916
 Zero-point vibrational energy     625108.0 (Joules/Mol)
                                  149.40440 (Kcal/Mol)
 Warning -- explicit consideration of  29 degrees of freedom as
           vibrations may cause significant error
 Vibrational temperatures:     41.68    63.91    84.89   105.06   136.85
          (Kelvin)            164.35   177.41   194.82   220.97   227.42
                              238.39   251.89   300.59   334.06   344.12
                              364.64   369.93   401.18   435.12   458.41
                              477.48   532.36   568.27   590.81   618.43
                              676.17   808.91   861.25   870.76   914.90
                              962.16   994.25  1014.95  1075.08  1097.78
                             1175.36  1183.87  1255.42  1279.48  1312.91
                             1325.86  1342.64  1366.24  1378.50  1381.61
                             1403.04  1460.42  1507.19  1561.72  1566.05
                             1627.58  1658.86  1698.24  1735.19  1759.91
                             1833.60  1884.26  1914.28  1939.60  1992.51
                             2004.12  2053.05  2068.74  2095.68  2121.82
                             2125.29  2132.37  2143.63  2154.99  2169.86
                             3244.28  3786.74  4289.89  4357.98  4364.57
                             4373.59  4402.20  4425.65  4454.26  4466.39
                             4472.01  4491.58  4495.62  4514.86  4534.17
                             4548.38  4551.11

 Zero-point correction=                           0.238091 (Hartree/Particle)
 Thermal correction to Energy=                    0.257273
 Thermal correction to Enthalpy=                  0.258217
 Thermal correction to Gibbs Free Energy=         0.190144
 Sum of electronic and zero-point Energies=          -2360.401091
 Sum of electronic and thermal Energies=             -2360.381910
 Sum of electronic and thermal Enthalpies=           -2360.380966
 Sum of electronic and thermal Free Energies=        -2360.449038

                     E (Thermal)             CV                S
                      KCal/Mol        Cal/Mol-Kelvin    Cal/Mol-Kelvin
 Total                  161.441             69.313            143.270
 Electronic               0.000              0.000              0.000
 Translational            0.889              2.981             42.861
 Rotational               0.889              2.981             33.412
 Vibrational            159.663             63.351             66.998
 Vibration     1          0.593              1.984              5.899
 Vibration     2          0.595              1.980              5.051
 Vibration     3          0.596              1.974              4.490
 Vibration     4          0.599              1.967              4.070
 Vibration     5          0.603              1.953              3.552
 Vibration     6          0.607              1.938              3.196
 Vibration     7          0.610              1.930              3.048
 Vibration     8          0.613              1.918              2.868
 Vibration     9          0.619              1.899              2.627
 Vibration    10          0.621              1.894              2.573
 Vibration    11          0.624              1.885              2.484
 Vibration    12          0.627              1.873              2.380
 Vibration    13          0.642              1.827              2.053
 Vibration    14          0.653              1.792              1.862
 Vibration    15          0.657              1.781              1.809
 Vibration    16          0.665              1.757              1.707
 Vibration    17          0.667              1.751              1.681
 Vibration    18          0.679              1.713              1.541
 Vibration    19          0.694              1.669              1.403
 Vibration    20          0.705              1.638              1.317
 Vibration    21          0.714              1.612              1.251
 Vibration    22          0.742              1.534              1.080
 Vibration    23          0.762              1.481              0.981
 Vibration    24          0.775              1.447              0.924
 Vibration    25          0.791              1.405              0.859
 Vibration    26          0.827              1.317              0.738
 Vibration    27          0.918              1.113              0.519
 Vibration    28          0.957              1.035              0.452
 Vibration    29          0.964              1.021              0.441

                           ! Non-Optimized Parameters !
 Normal termination of Gaussian 16 at Fri May 19 21:12:58 2023.
