 Gaussian 16, Revision A.03,
 Gaussian 16:  ES64L-G16RevA.03 25-Dec-2016

 -----------------------------
 # opt freq b3lyp/6-31g(2df,p)
 -----------------------------

 -------------------
 Title Card Required
 -------------------
 Symbolic Z-matrix:
 Charge =  0 Multiplicity = 1

 SCF Done:  E(RB3LYP) =  -879.253883966     A.U. after   24 cycles
 SCF Done:  E(RB3LYP) =  -879.323893417     A.U. after   16 cycles
 SCF Done:  E(RB3LYP) =  -879.407699211     A.U. after   16 cycles
 SCF Done:  E(RB3LYP) =  -879.473730663     A.U. after   16 cycles
 SCF Done:  E(RB3LYP) =  -879.539581467     A.U. after   16 cycles
 SCF Done:  E(RB3LYP) =  -879.584538471     A.U. after   15 cycles
 SCF Done:  E(RB3LYP) =  -879.619833707     A.U. after   15 cycles
 SCF Done:  E(RB3LYP) =  -879.636679788     A.U. after   15 cycles
 SCF Done:  E(RB3LYP) =  -879.645247220     A.U. after   14 cycles
 SCF Done:  E(RB3LYP) =  -879.649024123     A.U. after   14 cycles
 SCF Done:  E(RB3LYP) =  -879.740244454     A.U. after   13 cycles
 SCF Done:  E(RB3LYP) =  -879.740317618     A.U. after   13 cycles
 SCF Done:  E(RB3LYP) =  -879.740413360     A.U. after   13 cycles
 SCF Done:  E(RB3LYP) =  -879.740338525     A.U. after   13 cycles
 SCF Done:  E(RB3LYP) =  -879.740444142     A.U. after   12 cycles
 SCF Done:  E(RB3LYP) =  -879.740448828     A.U. after   10 cycles
 SCF Done:  E(RB3LYP) =  -879.740449149     A.U. after    8 cycles
 SCF Done:  E(RB3LYP) =  -879.740450335     A.U. after   10 cycles
 SCF Done:  E(RB3LYP) =  -879.740450359     A.U. after    7 cycles
 Optimization completed.
    -- Stationary point found.
 Normal termination of Gaussian 16 at Tue May 16 14:01:33 2023.

 ----------------------------------------------------------------------
 #N Geom=AllCheck Guess=TCheck SCRF=Check GenChk RB3LYP/6-31G(2df,p) Fr
 eq
 ----------------------------------------------------------------------

 Structure from the checkpoint file:  "N[C]CCdC[SH]dc1cccccc1.chk"
 -------------------
 Title Card Required
 -------------------
 Charge =  0 Multiplicity = 1

                         Standard orientation:
 ---------------------------------------------------------------------
 Center     Atomic      Atomic             Coordinates (Angstroms)
 Number     Number       Type             X           Y           Z
 ---------------------------------------------------------------------
      1          7           0       -5.778173    0.513502    0.437632
      2          6           0       -4.862889   -0.415630    0.535501
      3          6           0       -3.531432    0.177008    0.939868
      4          6           0       -2.401625   -0.395974    0.129188
      5          6           0       -1.461220    0.315749   -0.486653
      6         16           0       -0.057699   -0.561594   -1.299351
      7          6           0        1.503412   -0.257309   -0.726211
      8          6           0        2.126507   -1.371987   -0.042188
      9          6           0        3.193451   -1.378300    0.785205
     10          6           0        3.946095   -0.235355    1.301873
     11          6           0        3.894209    1.052234    0.919130
     12          6           0        3.079610    1.642542   -0.147608
     13          6           0        2.047057    1.092051   -0.811868
     14          1           0       -6.729559    0.267738    0.198039
     15          1           0       -5.623932    1.516958    0.589098
     16          1           0       -3.391172   -0.152503    1.983953
     17          1           0       -3.488026    1.283380    0.944464
     18          1           0       -2.390140   -1.482490    0.056554
     19          1           0       -1.402615    1.400649   -0.448623
     20          1           0       -0.114592    0.248182   -2.401266
     21          1           0        1.677191   -2.342333   -0.257567
     22          1           0        3.530381   -2.349790    1.135356
     23          1           0        4.635113   -0.477571    2.108811
     24          1           0        4.540394    1.753390    1.441960
     25          1           0        3.358769    2.653513   -0.434868
     26          1           0        1.569534    1.721695   -1.567140
 ---------------------------------------------------------------------

 SCF Done:  E(RB3LYP) =  -879.740450359     A.U. after    1 cycles

 The electronic state is 1-A.
 Alpha  occ. eigenvalues --  -88.95131 -14.38792 -10.21016 -10.20489 -10.20240
 Alpha  occ. eigenvalues --  -10.20209 -10.17920 -10.17830 -10.17816 -10.16502
 Alpha  occ. eigenvalues --  -10.16222 -10.16096 -10.15156  -8.00543  -5.96831
 Alpha  occ. eigenvalues --   -5.96802  -5.96403  -0.94777  -0.85380  -0.81031
 Alpha  occ. eigenvalues --   -0.78755  -0.74613  -0.73445  -0.70079  -0.62919
 Alpha  occ. eigenvalues --   -0.61951  -0.60681  -0.56858  -0.54193  -0.50958
 Alpha  occ. eigenvalues --   -0.49845  -0.49311  -0.47268  -0.46045  -0.43294
 Alpha  occ. eigenvalues --   -0.42212  -0.41881  -0.41066  -0.38786  -0.37079
 Alpha  occ. eigenvalues --   -0.36719  -0.34757  -0.34237  -0.33191  -0.30933
 Alpha  occ. eigenvalues --   -0.30749  -0.27589  -0.25824  -0.25356  -0.20724
 Alpha  occ. eigenvalues --   -0.12831
 Alpha virt. eigenvalues --   -0.03380  -0.02221  -0.00397   0.01873   0.04874
 Alpha virt. eigenvalues --    0.06068   0.08270   0.10131   0.11262   0.11934
 Alpha virt. eigenvalues --    0.12486   0.13378   0.13784   0.14353   0.15609

 Mulliken charges:
               1
     1  N   -0.341199
     2  C   -0.108419
     3  C   -0.278288
     4  C    0.006329
     5  C   -0.157916
     6  S   -0.019573
     7  C    0.062281
     8  C   -0.100522
     9  C   -0.142400
    10  C   -0.085532
    11  C   -0.109830
    12  C   -0.118158
    13  C   -0.126565
    14  H    0.273435
    15  H    0.224439
    16  H    0.143946
    17  H    0.067081
    18  H    0.124452
    19  H    0.115776
    20  H    0.126342
    21  H    0.085099
    22  H    0.070702
    23  H    0.078571
    24  H    0.075849
    25  H    0.074191
    26  H    0.059909
 Sum of Mulliken charges =  -0.00000

 Dipole moment (field-independent basis, Debye):
    X=             -5.2091    Y=              2.8385    Z=             -0.3818  Tot=              5.9445
 Quadrupole moment (field-independent basis, Debye-Ang):
   XX=            -70.6287   YY=            -82.3512   ZZ=            -82.7668
   XY=            -12.7199   XZ=              0.1377   YZ=             -1.0404

  Exact polarizability: 271.907   8.675 138.708  30.552  -6.602 112.342
 Approx polarizability: 392.112  24.777 239.799  72.919 -13.076 198.195

                      1                      2                      3
                      A                      A                      A
 Frequencies --     22.7352                32.4954                50.9474
 Red. masses --      4.2187                 4.2467                 3.3803
 Frc consts  --      0.0013                 0.0026                 0.0052
 IR Inten    --      0.7106                 1.4210                 7.3933

                      4                      5                      6
                      A                      A                      A
 Frequencies --     60.4898                80.9608               149.3054
 Red. masses --      3.9949                 3.5285                 3.3278
 Frc consts  --      0.0086                 0.0136                 0.0437
 IR Inten    --      2.3739                 2.2216                23.6076

                      7                      8                      9
                      A                      A                      A
 Frequencies --    156.6637               186.4637               236.8564
 Red. masses --      2.6958                 4.3890                 4.0928
 Frc consts  --      0.0390                 0.0899                 0.1353
 IR Inten    --     13.8117                 6.0974                33.2740

                     10                     11                     12
                      A                      A                      A
 Frequencies --    286.1931               299.5396               315.5452
 Red. masses --      3.5731                 3.0571                 3.3950
 Frc consts  --      0.1724                 0.1616                 0.1992
 IR Inten    --      0.4915                 1.0929                 7.5307

                     13                     14                     15
                      A                      A                      A
 Frequencies --    357.4157               394.8245               449.9274
 Red. masses --      6.0354                 4.0855                 6.1470
 Frc consts  --      0.4543                 0.3752                 0.7332
 IR Inten    --     19.4873                10.4527                 0.6710

                     16                     17                     18
                      A                      A                      A
 Frequencies --    474.6335               497.0013               594.2978
 Red. masses --      2.2371                 2.5903                 4.4779
 Frc consts  --      0.2969                 0.3770                 0.9318
 IR Inten    --     25.1216                16.1955                40.1270

                     19                     20                     21
                      A                      A                      A
 Frequencies --    596.4824               669.2724               696.5461
 Red. masses --      4.0132                 1.9966                 1.9024
 Frc consts  --      0.8413                 0.5269                 0.5438
 IR Inten    --     18.9091                11.2577                80.3853

                     22                     23                     24
                      A                      A                      A
 Frequencies --    722.8092               728.1768               761.2236
 Red. masses --      1.3225                 1.3364                 1.3122
 Frc consts  --      0.4071                 0.4175                 0.4480
 IR Inten    --     50.6411                 6.7145               124.7440

                     25                     26                     27
                      A                      A                      A
 Frequencies --    766.6243               769.8183               816.4866
 Red. masses --      1.7028                 1.4351                 1.4832
 Frc consts  --      0.5896                 0.5011                 0.5826
 IR Inten    --     22.2491                 1.4107                 2.5447

                     28                     29                     30
                      A                      A                      A
 Frequencies --    837.5988               900.9055               921.6024
 Red. masses --      4.9474                 4.6826                 2.8568
 Frc consts  --      2.0450                 2.2392                 1.4296
 IR Inten    --     12.0480                 1.2379                47.7887

                     31                     32                     33
                      A                      A                      A
 Frequencies --    935.3102               964.3051               968.5800
 Red. masses --      1.8686                 1.9752                 2.3044
 Frc consts  --      0.9631                 1.0822                 1.2737
 IR Inten    --      7.9524                14.1880                11.5795

                     34                     35                     36
                      A                      A                      A
 Frequencies --    973.5089               984.0028               993.3725
 Red. masses --      1.3428                 1.3108                 1.3193
 Frc consts  --      0.7498                 0.7478                 0.7670
 IR Inten    --      3.4827                 3.7575                 0.3548

                     37                     38                     39
                      A                      A                      A
 Frequencies --   1006.8466              1051.4752              1060.2343
 Red. masses --      1.1849                 2.9652                 2.9964
 Frc consts  --      0.7077                 1.9315                 1.9845
 IR Inten    --     24.8301                34.2214                19.4628

                     40                     41                     42
                      A                      A                      A
 Frequencies --   1120.8008              1146.3174              1205.6338
 Red. masses --      1.1948                 1.2554                 1.3198
 Frc consts  --      0.8843                 0.9720                 1.1303
 IR Inten    --     30.3894                37.0081                19.2277

                     43                     44                     45
                      A                      A                      A
 Frequencies --   1228.3276              1231.2636              1260.0071
 Red. masses --      1.5777                 1.6307                 1.1243
 Frc consts  --      1.4025                 1.4566                 1.0516
 IR Inten    --     22.5852                 9.5862                 0.8553

                     46                     47                     48
                      A                      A                      A
 Frequencies --   1280.2955              1295.9826              1322.7764
 Red. masses --      1.0769                 1.2915                 1.6559
 Frc consts  --      1.0401                 1.2780                 1.7071
 IR Inten    --      0.1436                 7.6326                25.7187

                     49                     50                     51
                      A                      A                      A
 Frequencies --   1331.4631              1399.5826              1429.2154
 Red. masses --      1.3156                 1.3308                 1.1212
 Frc consts  --      1.3741                 1.5359                 1.3493
 IR Inten    --     18.9246                 2.2461                 2.3545

                     52                     53                     54
                      A                      A                      A
 Frequencies --   1456.5134              1470.2628              1471.3207
 Red. masses --      1.4484                 4.0604                 1.7313
 Frc consts  --      1.8103                 5.1714                 2.2082
 IR Inten    --     21.0248                47.4092                 1.6573

                     55                     56                     57
                      A                      A                      A
 Frequencies --   1587.3812              1667.0886              1674.3221
 Red. masses --      5.1830                 2.2916                 2.0638
 Frc consts  --      7.6947                 3.7523                 3.4087
 IR Inten    --     14.0769                33.2293                29.7721

                     58                     59                     60
                      A                      A                      A
 Frequencies --   1676.4510              1696.6651              2383.0815
 Red. masses --      6.1974                 5.0015                 1.0373
 Frc consts  --     10.2623                 8.4829                 3.4710
 IR Inten    --     20.3887                19.9960               193.0006

                     61                     62                     63
                      A                      A                      A
 Frequencies --   2909.2288              2985.7106              3076.5924
 Red. masses --      1.0657                 1.0900                 1.0843
 Frc consts  --      5.3145                 5.7249                 6.0469
 IR Inten    --     58.7117                14.9538                18.9841

                     64                     65                     66
                      A                      A                      A
 Frequencies --   3109.5778              3129.7675              3145.3345
 Red. masses --      1.0846                 1.0815                 1.0889
 Frc consts  --      6.1791                 6.2414                 6.3469
 IR Inten    --      7.8066                 2.3525                32.2409

                     67                     68                     69
                      A                      A                      A
 Frequencies --   3147.8872              3158.7563              3160.4303
 Red. masses --      1.0874                 1.0904                 1.0936
 Frc consts  --      6.3488                 6.4101                 6.4357
 IR Inten    --      5.1565                59.0823                14.5990

                     70                     71                     72
                      A                      A                      A
 Frequencies --   3167.5962              3309.0673              3581.5564
 Red. masses --      1.0925                 1.0588                 1.0822
 Frc consts  --      6.4584                 6.8306                 8.1788
 IR Inten    --     31.2989                38.7510                34.0811

 - Thermochemistry -
 -------------------
 Temperature   298.150 Kelvin.  Pressure   1.00000 Atm.
 Atom     1 has atomic number  7 and mass  14.00307

 Molecular mass:   191.07687 amu.
 Principal axes and moments of inertia in atomic units:
                           1         2         3
     Eigenvalues --  1095.605867356.928747404.05470
           X            0.99999  -0.00381   0.00236
           Y            0.00434   0.95501  -0.29656
           Z           -0.00113   0.29657   0.95501
 This molecule is an asymmetric top.
 Rotational symmetry number  1.
 Warning -- assumption of classical behavior for rotation
           may cause significant error
 Rotational temperatures (Kelvin)      0.07906     0.01177     0.01170
 Rotational constants (GHZ):           1.64725     0.24531     0.24375
 Zero-point vibrational energy     544227.5 (Joules/Mol)
                                  130.07350 (Kcal/Mol)
 Warning -- explicit consideration of  19 degrees of freedom as
           vibrations may cause significant error
 Vibrational temperatures:     32.71    46.75    73.30    87.03   116.48
          (Kelvin)            214.82   225.40   268.28   340.78   411.77
                              430.97   454.00   514.24   568.06   647.35
                              682.89   715.07   855.06   858.21   962.93
                             1002.17  1039.96  1047.68  1095.23  1103.00
                             1107.60  1174.74  1205.12  1296.20  1325.98
                             1345.70  1387.42  1393.57  1400.66  1415.76
                             1429.24  1448.63  1512.84  1525.44  1612.58
                             1649.29  1734.64  1767.29  1771.51  1812.87
                             1842.06  1864.63  1903.18  1915.68  2013.69
                             2056.32  2095.60  2115.38  2116.90  2283.89
                             2398.57  2408.98  2412.04  2441.12  3428.72
                             4185.73  4295.77  4426.53  4473.99  4503.04
                             4525.43  4529.11  4544.75  4547.15  4557.46
                             4761.01  5153.06

 Zero-point correction=                           0.207285 (Hartree/Particle)
 Thermal correction to Energy=                    0.221143
 Thermal correction to Enthalpy=                  0.222087
 Thermal correction to Gibbs Free Energy=         0.164134
 Sum of electronic and zero-point Energies=           -879.533165
 Sum of electronic and thermal Energies=              -879.519308
 Sum of electronic and thermal Enthalpies=            -879.518364
 Sum of electronic and thermal Free Energies=         -879.576316

                     E (Thermal)             CV                S
                      KCal/Mol        Cal/Mol-Kelvin    Cal/Mol-Kelvin
 Total                  138.769             50.928            121.972
 Electronic               0.000              0.000              0.000
 Translational            0.889              2.981             41.648
 Rotational               0.889              2.981             32.456
 Vibrational            136.992             44.966             47.867
 Vibration     1          0.593              1.985              6.380
 Vibration     2          0.594              1.983              5.671
 Vibration     3          0.595              1.977              4.780
 Vibration     4          0.597              1.973              4.441
 Vibration     5          0.600              1.962              3.867
 Vibration     6          0.618              1.903              2.681
 Vibration     7          0.620              1.895              2.590
 Vibration     8          0.632              1.858              2.263
 Vibration     9          0.656              1.784              1.826
 Vibration    10          0.684              1.699              1.496
 Vibration    11          0.692              1.675              1.419
 Vibration    12          0.703              1.644              1.333
 Vibration    13          0.733              1.560              1.133
 Vibration    14          0.762              1.481              0.982
 Vibration    15          0.809              1.361              0.796
 Vibration    16          0.831              1.306              0.725
 Vibration    17          0.853              1.257              0.666
 Vibration    18          0.952              1.044              0.460
 Vibration    19          0.954              1.039              0.456

                           ! Non-Optimized Parameters !
 Normal termination of Gaussian 16 at Tue May 16 15:04:43 2023.
