 Gaussian 16, Revision A.03,
 Gaussian 16:  ES64L-G16RevA.03 25-Dec-2016

 -----------------------------
 # opt freq b3lyp/6-31g(2df,p)
 -----------------------------

 -------------------
 Title Card Required
 -------------------
 Symbolic Z-matrix:
 Charge =  0 Multiplicity = 1

 SCF Done:  E(RB3LYP) =  -593.596380625     A.U. after   17 cycles
 SCF Done:  E(RB3LYP) =  -593.644945163     A.U. after   15 cycles
 SCF Done:  E(RB3LYP) =  -593.682076359     A.U. after   15 cycles
 SCF Done:  E(RB3LYP) =  -593.687835848     A.U. after   14 cycles
 SCF Done:  E(RB3LYP) =  -593.688139099     A.U. after   14 cycles
 SCF Done:  E(RB3LYP) =  -593.689335508     A.U. after   12 cycles
 SCF Done:  E(RB3LYP) =  -593.689681104     A.U. after   12 cycles
 SCF Done:  E(RB3LYP) =  -593.689918385     A.U. after   12 cycles
 SCF Done:  E(RB3LYP) =  -593.689983755     A.U. after   12 cycles
 SCF Done:  E(RB3LYP) =  -593.689998492     A.U. after   10 cycles
 SCF Done:  E(RB3LYP) =  -593.690001651     A.U. after    9 cycles
 SCF Done:  E(RB3LYP) =  -593.690001960     A.U. after    7 cycles
 SCF Done:  E(RB3LYP) =  -593.690002156     A.U. after    8 cycles
 SCF Done:  E(RB3LYP) =  -593.690002267     A.U. after    8 cycles
 SCF Done:  E(RB3LYP) =  -593.690002346     A.U. after    8 cycles
 SCF Done:  E(RB3LYP) =  -593.690002410     A.U. after    8 cycles
 SCF Done:  E(RB3LYP) =  -593.690002463     A.U. after    8 cycles
 SCF Done:  E(RB3LYP) =  -593.690002489     A.U. after    7 cycles
 Optimization completed.
    -- Stationary point found.
 Normal termination of Gaussian 16 at Thu May 18 11:36:59 2023.

 ----------------------------------------------------------------------
 #N Geom=AllCheck Guess=TCheck SCRF=Check GenChk RB3LYP/6-31G(2df,p) Fr
 eq
 ----------------------------------------------------------------------

 Structure from the checkpoint file:  "NC12CdCCdCCdCC1dCCdCC2dO.chk"
 -------------------
 Title Card Required
 -------------------
 Charge =  0 Multiplicity = 1

                         Standard orientation:
 ---------------------------------------------------------------------
 Center     Atomic      Atomic             Coordinates (Angstroms)
 Number     Number       Type             X           Y           Z
 ---------------------------------------------------------------------
      1          7           0        1.001889   -0.629325    1.995639
      2          6           0        0.599972   -0.463780    0.580793
      3          6           0       -0.379082   -1.563684    0.215770
      4          6           0       -1.013396   -1.493501   -0.978985
      5          6           0       -2.417999   -1.188320   -0.763652
      6          6           0       -2.709815    0.122410   -1.000920
      7          6           0       -2.751140    0.857849    0.301191
      8          6           0       -1.576546    1.108778    0.923283
      9          6           0       -0.170456    0.888089    0.395323
     10          6           0        0.458967    1.929459   -0.185423
     11          6           0        1.799273    1.833263   -0.732763
     12          6           0        2.502367    0.682461   -0.751400
     13          6           0        1.926811   -0.558339   -0.232064
     14          8           0        2.460085   -1.638587   -0.376882
     15          1           0        0.178576   -0.523063    2.584792
     16          1           0        1.637409    0.120212    2.260018
     17          1           0       -0.919677   -1.967863    1.069467
     18          1           0       -0.521336   -1.016221   -1.823925
     19          1           0       -2.886603   -1.678758    0.088149
     20          1           0       -2.158943    0.627091   -1.793598
     21          1           0       -3.676021    1.143737    0.798523
     22          1           0       -1.625632    1.654646    1.866862
     23          1           0       -0.051204    2.885072   -0.267519
     24          1           0        2.229289    2.733679   -1.163710
     25          1           0        3.486515    0.607321   -1.200398
 ---------------------------------------------------------------------

 SCF Done:  E(RB3LYP) =  -593.690002489     A.U. after    1 cycles

 The electronic state is 1-A.
 Alpha  occ. eigenvalues --  -19.12337 -14.32939 -10.26293 -10.24433 -10.21803
 Alpha  occ. eigenvalues --  -10.21744 -10.21595 -10.21182 -10.20999 -10.20418
 Alpha  occ. eigenvalues --  -10.19729 -10.19276 -10.19272 -10.18448  -1.03324
 Alpha  occ. eigenvalues --   -0.91080  -0.85420  -0.83487  -0.79441  -0.76678
 Alpha  occ. eigenvalues --   -0.72237  -0.68413  -0.64890  -0.59984  -0.58191
 Alpha  occ. eigenvalues --   -0.57224  -0.53910  -0.50371  -0.49812  -0.48397
 Alpha  occ. eigenvalues --   -0.47384  -0.46558  -0.45236  -0.43675  -0.42291
 Alpha  occ. eigenvalues --   -0.41315  -0.40357  -0.39839  -0.37836  -0.37727
 Alpha  occ. eigenvalues --   -0.37146  -0.35378  -0.33300  -0.30302  -0.26785
 Alpha  occ. eigenvalues --   -0.25995  -0.24057  -0.23278  -0.19418
 Alpha virt. eigenvalues --   -0.07853  -0.03934  -0.02925  -0.00078   0.01880
 Alpha virt. eigenvalues --    0.08030   0.09143   0.09433   0.10141   0.12420
 Alpha virt. eigenvalues --    0.13577   0.15165   0.15416   0.16538   0.16947

 Mulliken charges:
               1
     1  N   -0.533545
     2  C   -0.008608
     3  C   -0.058949
     4  C   -0.127263
     5  C   -0.053886
     6  C   -0.204489
     7  C   -0.072888
     8  C   -0.162486
     9  C    0.217065
    10  C   -0.196700
    11  C   -0.064459
    12  C   -0.215392
    13  C    0.378425
    14  O   -0.326357
    15  H    0.232994
    16  H    0.235720
    17  H    0.092165
    18  H    0.116634
    19  H    0.112616
    20  H    0.103022
    21  H    0.104214
    22  H    0.104741
    23  H    0.099282
    24  H    0.112606
    25  H    0.115535
 Sum of Mulliken charges =  -0.00000

 Dipole moment (field-independent basis, Debye):
    X=             -1.7049    Y=              3.7957    Z=              1.0960  Tot=              4.3029
 Quadrupole moment (field-independent basis, Debye-Ang):
   XX=            -84.2911   YY=            -83.7723   ZZ=            -76.7516
   XY=              9.7485   XZ=             -4.2480   YZ=             -0.0809

  Exact polarizability: 162.939  -7.073 130.370  -4.898  -5.190 105.876
 Approx polarizability: 274.203 -42.830 253.155   7.929 -17.866 191.256

                      1                      2                      3
                      A                      A                      A
 Frequencies --     21.3845                95.1883               157.7215
 Red. masses --      5.7946                 4.7742                 3.7232
 Frc consts  --      0.0016                 0.0255                 0.0546
 IR Inten    --      1.9149                 0.2941                 1.4131

                      4                      5                      6
                      A                      A                      A
 Frequencies --    170.4136               204.2394               235.4550
 Red. masses --      3.8618                 1.8937                 3.1368
 Frc consts  --      0.0661                 0.0465                 0.1025
 IR Inten    --      1.0388                 3.6014                10.9051

                      7                      8                      9
                      A                      A                      A
 Frequencies --    251.3474               259.9156               296.1247
 Red. masses --      3.0833                 2.0729                 4.0072
 Frc consts  --      0.1148                 0.0825                 0.2070
 IR Inten    --      5.2461                27.7353                 0.4743

                     10                     11                     12
                      A                      A                      A
 Frequencies --    345.3821               374.6005               395.9880
 Red. masses --      2.0254                 4.1494                 3.6662
 Frc consts  --      0.1423                 0.3431                 0.3387
 IR Inten    --     22.4136                 2.4767                 5.7464

                     13                     14                     15
                      A                      A                      A
 Frequencies --    431.5593               451.2349               477.5827
 Red. masses --      3.4271                 3.9494                 6.5135
 Frc consts  --      0.3761                 0.4738                 0.8753
 IR Inten    --      7.4486                 5.2711                 5.5279

                     16                     17                     18
                      A                      A                      A
 Frequencies --    523.3008               547.6541               590.3482
 Red. masses --      3.3582                 4.4018                 4.0969
 Frc consts  --      0.5418                 0.7778                 0.8413
 IR Inten    --      5.6880                 2.1642                 5.8012

                     19                     20                     21
                      A                      A                      A
 Frequencies --    596.1584               670.9166               705.6445
 Red. masses --      3.5471                 4.2072                 2.3881
 Frc consts  --      0.7428                 1.1158                 0.7006
 IR Inten    --      4.7524                 6.0529                15.1166

                     22                     23                     24
                      A                      A                      A
 Frequencies --    740.6127               751.2566               762.9883
 Red. masses --      2.0721                 2.0008                 1.8809
 Frc consts  --      0.6696                 0.6653                 0.6451
 IR Inten    --     16.7773               147.7173               116.6961

                     25                     26                     27
                      A                      A                      A
 Frequencies --    797.7723               811.6446               839.1896
 Red. masses --      2.0555                 3.1130                 2.0835
 Frc consts  --      0.7708                 1.2083                 0.8645
 IR Inten    --     36.6212                26.3626                94.0773

                     28                     29                     30
                      A                      A                      A
 Frequencies --    865.6178               918.3286               945.0974
 Red. masses --      2.2368                 1.4823                 2.8242
 Frc consts  --      0.9875                 0.7365                 1.4863
 IR Inten    --     13.4307                 8.3496                62.3285

                     31                     32                     33
                      A                      A                      A
 Frequencies --    966.1025               990.2974              1012.1696
 Red. masses --      1.3984                 1.3605                 1.3826
 Frc consts  --      0.7690                 0.7861                 0.8345
 IR Inten    --     11.1230                17.4235                 1.2974

                     34                     35                     36
                      A                      A                      A
 Frequencies --   1014.9568              1028.2228              1037.7722
 Red. masses --      3.0078                 2.8597                 2.3559
 Frc consts  --      1.8255                 1.7813                 1.4949
 IR Inten    --      4.4288                13.9711                 2.7404

                     37                     38                     39
                      A                      A                      A
 Frequencies --   1080.9872              1098.4359              1114.7790
 Red. masses --      1.5011                 1.9730                 2.5359
 Frc consts  --      1.0335                 1.4026                 1.8568
 IR Inten    --     44.1745                 3.5758                11.6479

                     40                     41                     42
                      A                      A                      A
 Frequencies --   1140.0583              1155.4070              1210.3858
 Red. masses --      2.7400                 1.8173                 1.2518
 Frc consts  --      2.0982                 1.4294                 1.0805
 IR Inten    --      8.8122                24.4998                 4.3989

                     43                     44                     45
                      A                      A                      A
 Frequencies --   1219.6586              1235.0335              1301.8217
 Red. masses --      1.4346                 1.2347                 1.3818
 Frc consts  --      1.2574                 1.1096                 1.3797
 IR Inten    --     12.0734                 6.1621                 3.9847

                     46                     47                     48
                      A                      A                      A
 Frequencies --   1322.1417              1328.8692              1336.1341
 Red. masses --      1.5710                 1.5790                 1.4454
 Frc consts  --      1.6181                 1.6429                 1.5203
 IR Inten    --      1.4569                 1.8452                 0.6280

                     49                     50                     51
                      A                      A                      A
 Frequencies --   1352.4562              1374.3254              1420.3141
 Red. masses --      1.4599                 1.4440                 1.8128
 Frc consts  --      1.5733                 1.6069                 2.1546
 IR Inten    --      4.9843                 6.6655                12.3973

                     52                     53                     54
                      A                      A                      A
 Frequencies --   1516.9146              1570.2621              1585.1943
 Red. masses --      3.9565                 4.6517                 7.6679
 Frc consts  --      5.3640                 6.7578                11.3525
 IR Inten    --     25.3920                 6.7498                30.6905

                     55                     56                     57
                      A                      A                      A
 Frequencies --   1604.2230              1650.8195              1674.9470
 Red. masses --      8.1266                 1.1030                 5.8059
 Frc consts  --     12.3222                 1.7711                 9.5967
 IR Inten    --     34.4939                23.9289                12.7324

                     58                     59                     60
                      A                      A                      A
 Frequencies --   1763.1863              3103.3315              3117.7100
 Red. masses --     11.7509                 1.0830                 1.0856
 Frc consts  --     21.5238                 6.1453                 6.2170
 IR Inten    --    185.6675                 6.3151                 7.7508

                     61                     62                     63
                      A                      A                      A
 Frequencies --   3129.1032              3135.8877              3142.2643
 Red. masses --      1.0871                 1.0876                 1.0919
 Frc consts  --      6.2711                 6.3015                 6.3524
 IR Inten    --      1.6208                19.0408                45.2371

                     64                     65                     66
                      A                      A                      A
 Frequencies --   3149.1202              3156.4047              3170.8259
 Red. masses --      1.0880                 1.0864                 1.0902
 Frc consts  --      6.3570                 6.3771                 6.4583
 IR Inten    --     16.3763                11.3900                14.0667

                     67                     68                     69
                      A                      A                      A
 Frequencies --   3199.7383              3466.1466              3549.2374
 Red. masses --      1.0952                 1.0490                 1.0925
 Frc consts  --      6.6066                 7.4256                 8.1085
 IR Inten    --      7.0128                 0.8220                 0.6070

 - Thermochemistry -
 -------------------
 Temperature   298.150 Kelvin.  Pressure   1.00000 Atm.
 Atom     1 has atomic number  7 and mass  14.00307

 Molecular mass:   185.08406 amu.
 Principal axes and moments of inertia in atomic units:
                           1         2         3
     Eigenvalues --  1526.671102740.158233215.82929
           X            0.99974   0.02002  -0.01096
           Y           -0.02028   0.99949  -0.02452
           Z            0.01047   0.02473   0.99964
 This molecule is an asymmetric top.
 Rotational symmetry number  1.
 Warning -- assumption of classical behavior for rotation
           may cause significant error
 Rotational temperatures (Kelvin)      0.05673     0.03161     0.02693
 Rotational constants (GHZ):           1.18214     0.65863     0.56121
 Zero-point vibrational energy     518343.8 (Joules/Mol)
                                  123.88714 (Kcal/Mol)
 Warning -- explicit consideration of  19 degrees of freedom as
           vibrations may cause significant error
 Vibrational temperatures:     30.77   136.95   226.93   245.19   293.85
          (Kelvin)            338.77   361.63   373.96   426.06   496.93
                              538.97   569.74   620.92   649.23   687.14
                              752.91   787.95   849.38   857.74   965.30
                             1015.27  1065.58  1080.89  1097.77  1147.82
                             1167.78  1207.41  1245.43  1321.27  1359.78
                             1390.01  1424.82  1456.29  1460.30  1479.38
                             1493.12  1555.30  1580.40  1603.92  1640.29
                             1662.37  1741.48  1754.82  1776.94  1873.03
                             1902.27  1911.95  1922.40  1945.88  1977.35
                             2043.52  2182.50  2259.26  2280.74  2308.12
                             2375.16  2409.88  2536.83  4465.00  4485.69
                             4502.08  4511.84  4521.02  4530.88  4541.36
                             4562.11  4603.71  4987.01  5106.56

 Zero-point correction=                           0.197427 (Hartree/Particle)
 Thermal correction to Energy=                    0.209466
 Thermal correction to Enthalpy=                  0.210410
 Thermal correction to Gibbs Free Energy=         0.159310
 Sum of electronic and zero-point Energies=           -593.492576
 Sum of electronic and thermal Energies=              -593.480536
 Sum of electronic and thermal Enthalpies=            -593.479592
 Sum of electronic and thermal Free Energies=         -593.530692

                     E (Thermal)             CV                S
                      KCal/Mol        Cal/Mol-Kelvin    Cal/Mol-Kelvin
 Total                  131.442             48.165            107.549
 Electronic               0.000              0.000              0.000
 Translational            0.889              2.981             41.553
 Rotational               0.889              2.981             30.976
 Vibrational            129.665             42.203             35.020
 Vibration     1          0.593              1.985              6.501
 Vibration     2          0.603              1.953              3.551
 Vibration     3          0.621              1.894              2.577
 Vibration     4          0.626              1.879              2.431
 Vibration     5          0.640              1.834              2.095
 Vibration     6          0.655              1.787              1.837
 Vibration     7          0.663              1.761              1.721
 Vibration     8          0.668              1.746              1.662
 Vibration     9          0.690              1.681              1.439
 Vibration    10          0.724              1.585              1.187
 Vibration    11          0.746              1.524              1.061
 Vibration    12          0.763              1.479              0.978
 Vibration    13          0.793              1.401              0.854
 Vibration    14          0.810              1.358              0.792
 Vibration    15          0.834              1.300              0.717
 Vibration    16          0.878              1.198              0.602
 Vibration    17          0.903              1.145              0.549
 Vibration    18          0.948              1.052              0.467
 Vibration    19          0.954              1.040              0.456

 Optimization completed.
    -- Stationary point found.
 Normal termination of Gaussian 16 at Thu May 18 13:17:16 2023.
