 Gaussian 16, Revision A.03,
 Gaussian 16:  ES64L-G16RevA.03 25-Dec-2016

 -----------------------------
 # opt freq b3lyp/6-31g(2df,p)
 -----------------------------

 -------------------
 Title Card Required
 -------------------
 Symbolic Z-matrix:
 Charge =  0 Multiplicity = 1

 SCF Done:  E(RB3LYP) =  -517.036417043     A.U. after   17 cycles
 SCF Done:  E(RB3LYP) =  -517.097066983     A.U. after   15 cycles
 SCF Done:  E(RB3LYP) =  -517.166378749     A.U. after   16 cycles
 SCF Done:  E(RB3LYP) =  -517.201572906     A.U. after   17 cycles
 SCF Done:  E(RB3LYP) =  -517.217746790     A.U. after   16 cycles
 SCF Done:  E(RB3LYP) =  -517.227736589     A.U. after   19 cycles
 SCF Done:  E(RB3LYP) =  -517.236861918     A.U. after   19 cycles
 SCF Done:  E(RB3LYP) =  -517.240580020     A.U. after   16 cycles
 SCF Done:  E(RB3LYP) =  -517.250098834     A.U. after   15 cycles
 SCF Done:  E(RB3LYP) =  -517.256394798     A.U. after   15 cycles
 SCF Done:  E(RB3LYP) =  -517.277556977     A.U. after   14 cycles
 SCF Done:  E(RB3LYP) =  -517.278580185     A.U. after   13 cycles
 SCF Done:  E(RB3LYP) =  -517.278953785     A.U. after   12 cycles
 SCF Done:  E(RB3LYP) =  -517.279020339     A.U. after   12 cycles
 SCF Done:  E(RB3LYP) =  -517.279126040     A.U. after   12 cycles
 SCF Done:  E(RB3LYP) =  -517.279157314     A.U. after   10 cycles
 SCF Done:  E(RB3LYP) =  -517.279165250     A.U. after    9 cycles
 SCF Done:  E(RB3LYP) =  -517.279168960     A.U. after    9 cycles
 SCF Done:  E(RB3LYP) =  -517.279169957     A.U. after    8 cycles
 Optimization completed.
    -- Stationary point found.
 Normal termination of Gaussian 16 at Tue May 16 15:56:51 2023.

 ----------------------------------------------------------------------
 #N Geom=AllCheck Guess=TCheck SCRF=Check GenChk RB3LYP/6-31G(2df,p) Fr
 eq
 ----------------------------------------------------------------------

 Structure from the checkpoint file:  "Nc1ccc2cccc3cqc1-2rdCCd3.chk"
 -------------------
 Title Card Required
 -------------------
 Charge =  0 Multiplicity = 1

                         Standard orientation:
 ---------------------------------------------------------------------
 Center     Atomic      Atomic             Coordinates (Angstroms)
 Number     Number       Type             X           Y           Z
 ---------------------------------------------------------------------
      1          7           0        2.237078    1.988712    0.158825
      2          6           0        1.956991    0.621348    0.081251
      3          6           0        2.816484   -0.431731   -0.002225
      4          6           0        2.049885   -1.674972   -0.155823
      5          6           0        0.727000   -1.400902   -0.114693
      6          6           0       -0.593119   -1.977196   -0.407946
      7          6           0       -1.571389   -1.871326    0.516579
      8          6           0       -2.637702   -0.890955    0.215282
      9          6           0       -2.069372    0.295824   -0.071322
     10          6           0       -0.601259    0.732862   -0.062015
     11          6           0        0.585891    0.084017    0.010325
     12          6           0       -1.097888    2.115831   -0.155025
     13          6           0       -2.406161    1.729232   -0.200588
     14          1           0        3.213478    2.179754    0.345213
     15          1           0        1.661077    2.478938    0.831732
     16          1           0        3.896529   -0.375061    0.039978
     17          1           0        2.497103   -2.652418   -0.283678
     18          1           0       -0.900266   -1.870514   -1.450890
     19          1           0       -1.334440   -2.007803    1.573015
     20          1           0       -3.705640   -1.011056    0.378544
     21          1           0       -0.602555    3.075986   -0.194070
     22          1           0       -3.340993    2.268994   -0.274411
 ---------------------------------------------------------------------

 SCF Done:  E(RB3LYP) =  -517.279169957     A.U. after    1 cycles

 The electronic state is 1-A.
 Alpha  occ. eigenvalues --  -14.33494 -10.21695 -10.21456 -10.21385 -10.20869
 Alpha  occ. eigenvalues --  -10.20831 -10.19311 -10.18813 -10.17320 -10.17128
 Alpha  occ. eigenvalues --  -10.17093 -10.16929 -10.16045  -0.91267  -0.89134
 Alpha  occ. eigenvalues --   -0.83821  -0.79853  -0.73315  -0.71217  -0.66622
 Alpha  occ. eigenvalues --   -0.62536  -0.61004  -0.56069  -0.55261  -0.53301
 Alpha  occ. eigenvalues --   -0.51052  -0.48875  -0.48028  -0.45257  -0.43181
 Alpha  occ. eigenvalues --   -0.40788  -0.40118  -0.38872  -0.38391  -0.37863
 Alpha  occ. eigenvalues --   -0.37350  -0.34946  -0.33312  -0.32165  -0.28556
 Alpha  occ. eigenvalues --   -0.24523  -0.22709  -0.21190  -0.17476
 Alpha virt. eigenvalues --   -0.06621  -0.03674   0.00305   0.06704   0.07535
 Alpha virt. eigenvalues --    0.10231   0.11722   0.13009   0.13823   0.14117
 Alpha virt. eigenvalues --    0.15088   0.15807   0.16778   0.17852   0.18268

 Mulliken charges:
               1
     1  N   -0.607349
     2  C    0.167941
     3  C   -0.199422
     4  C   -0.300679
     5  C    0.215044
     6  C   -0.241578
     7  C   -0.122110
     8  C   -0.292323
     9  C    0.277981
    10  C    0.236208
    11  C    0.095048
    12  C   -0.224345
    13  C   -0.216036
    14  H    0.244294
    15  H    0.242861
    16  H    0.079579
    17  H    0.098767
    18  H    0.095222
    19  H    0.097206
    20  H    0.097624
    21  H    0.127007
    22  H    0.129062
 Sum of Mulliken charges =  -0.00000

 Dipole moment (field-independent basis, Debye):
    X=             -0.3845    Y=              2.9879    Z=              1.1111  Tot=              3.2109
 Quadrupole moment (field-independent basis, Debye-Ang):
   XX=            -63.8655   YY=            -69.8070   ZZ=            -75.6542
   XY=             -0.8506   XZ=              1.9962   YZ=              2.7619

  Exact polarizability: 193.905 -12.543 152.444  -2.903  -1.141  64.948
 Approx polarizability: 355.576 -41.536 287.559 -11.851  -4.723 115.555

                      1                      2                      3
                      A                      A                      A
 Frequencies --     99.7287               131.6279               185.7829
 Red. masses --      3.9048                 3.8805                 3.4045
 Frc consts  --      0.0229                 0.0396                 0.0692
 IR Inten    --      2.3657                 4.1577                 0.3394

                      4                      5                      6
                      A                      A                      A
 Frequencies --    211.9178               263.0228               288.5941
 Red. masses --      2.7131                 3.4734                 1.1952
 Frc consts  --      0.0718                 0.1416                 0.0587
 IR Inten    --      0.9150                 1.1363                20.8595

                      7                      8                      9
                      A                      A                      A
 Frequencies --    296.0043               359.7908               375.6523
 Red. masses --      2.8798                 3.0678                 4.0815
 Frc consts  --      0.1487                 0.2340                 0.3393
 IR Inten    --     13.2225                 8.9600                 1.9425

                     10                     11                     12
                      A                      A                      A
 Frequencies --    398.5838               428.3604               484.3408
 Red. masses --      3.8388                 5.3018                 4.2037
 Frc consts  --      0.3593                 0.5732                 0.5810
 IR Inten    --      0.7110                 0.3835                 1.2821

                     13                     14                     15
                      A                      A                      A
 Frequencies --    533.1428               570.1541               583.7976
 Red. masses --      3.3499                 2.9053                 3.3140
 Frc consts  --      0.5610                 0.5564                 0.6655
 IR Inten    --      2.0249                 1.6818                12.1469

                     16                     17                     18
                      A                      A                      A
 Frequencies --    648.0945               701.6774               723.6953
 Red. masses --      4.3883                 3.5839                 2.0388
 Frc consts  --      1.0860                 1.0396                 0.6291
 IR Inten    --     72.3451                22.4885                77.5723

                     19                     20                     21
                      A                      A                      A
 Frequencies --    743.0414               770.9221               797.1492
 Red. masses --      2.1904                 2.4194                 2.7598
 Frc consts  --      0.7125                 0.8472                 1.0333
 IR Inten    --     27.2076                15.4170                 9.7593

                     22                     23                     24
                      A                      A                      A
 Frequencies --    804.3448               811.1902               817.2199
 Red. masses --      2.5871                 2.0513                 1.7087
 Frc consts  --      0.9862                 0.7953                 0.6723
 IR Inten    --     63.7890                42.3402                28.8334

                     25                     26                     27
                      A                      A                      A
 Frequencies --    859.2587               873.6412               914.6479
 Red. masses --      1.6487                 1.4756                 1.4668
 Frc consts  --      0.7172                 0.6636                 0.7230
 IR Inten    --     24.8422                10.7428                 1.8841

                     28                     29                     30
                      A                      A                      A
 Frequencies --    955.6637               970.4593               990.4118
 Red. masses --      4.2755                 1.5673                 2.1481
 Frc consts  --      2.3006                 0.8697                 1.2415
 IR Inten    --      2.1278                14.7259                 4.1994

                     31                     32                     33
                      A                      A                      A
 Frequencies --   1005.3581              1038.0800              1064.0554
 Red. masses --      1.6927                 2.7475                 2.3463
 Frc consts  --      1.0080                 1.7444                 1.5652
 IR Inten    --      7.3504                 0.7155                 1.8410

                     34                     35                     36
                      A                      A                      A
 Frequencies --   1071.7124              1101.4623              1121.4941
 Red. masses --      2.2129                 1.9052                 1.8049
 Frc consts  --      1.4975                 1.3619                 1.3375
 IR Inten    --      0.2736                10.5120                11.0532

                     37                     38                     39
                      A                      A                      A
 Frequencies --   1175.8618              1256.9501              1268.3817
 Red. masses --      4.0431                 1.2913                 1.3867
 Frc consts  --      3.2936                 1.2020                 1.3144
 IR Inten    --     16.0549                 1.0372                 1.2851

                     40                     41                     42
                      A                      A                      A
 Frequencies --   1289.8337              1299.9648              1307.1653
 Red. masses --      2.2126                 2.2390                 1.8861
 Frc consts  --      2.1688                 2.2293                 1.8988
 IR Inten    --      7.3142                10.9426                 1.3424

                     43                     44                     45
                      A                      A                      A
 Frequencies --   1339.3241              1400.2183              1511.3570
 Red. masses --      1.2746                 3.1588                 5.1386
 Frc consts  --      1.3471                 3.6489                 6.9156
 IR Inten    --      3.9021                30.9655                 6.2703

                     46                     47                     48
                      A                      A                      A
 Frequencies --   1586.5705              1602.0868              1649.7792
 Red. masses --      4.7277                 4.2761                 1.4924
 Frc consts  --      7.0117                 6.4666                 2.3932
 IR Inten    --     36.4036                83.0124                84.2172

                     49                     50                     51
                      A                      A                      A
 Frequencies --   1664.8145              1672.1057              1694.0767
 Red. masses --      8.1293                 4.7094                10.1279
 Frc consts  --     13.2750                 7.7580                17.1252
 IR Inten    --     29.5699                14.1870                52.5725

                     52                     53                     54
                      A                      A                      A
 Frequencies --   3080.4271              3100.8452              3153.3371
 Red. masses --      1.0850                 1.0857                 1.0913
 Frc consts  --      6.0662                 6.1509                 6.3934
 IR Inten    --     24.3842                20.2791                31.5214

                     55                     56                     57
                      A                      A                      A
 Frequencies --   3205.5564              3216.2211              3220.0729
 Red. masses --      1.0908                 1.0875                 1.0977
 Frc consts  --      6.6038                 6.6279                 6.7059
 IR Inten    --     18.6063                 0.2585                15.9215

                     58                     59                     60
                      A                      A                      A
 Frequencies --   3244.5833              3526.9443              3619.1739
 Red. masses --      1.1114                 1.0476                 1.0956
 Frc consts  --      6.8937                 7.6781                 8.4554
 IR Inten    --      5.2486                 3.9350                 6.9510

 - Thermochemistry -
 -------------------
 Temperature   298.150 Kelvin.  Pressure   1.00000 Atm.
 Atom     1 has atomic number  7 and mass  14.00307

 Molecular mass:   167.07350 amu.
 Principal axes and moments of inertia in atomic units:
                           1         2         3
     Eigenvalues --  1320.990302161.353583387.51570
           X            0.99997   0.00722   0.00136
           Y           -0.00723   0.99996   0.00439
           Z           -0.00132  -0.00440   0.99999
 This molecule is an asymmetric top.
 Rotational symmetry number  1.
 Warning -- assumption of classical behavior for rotation
           may cause significant error
 Rotational temperatures (Kelvin)      0.06557     0.04007     0.02557
 Rotational constants (GHZ):           1.36620     0.83501     0.53276
 Zero-point vibrational energy     449076.5 (Joules/Mol)
                                  107.33187 (Kcal/Mol)
 Warning -- explicit consideration of  15 degrees of freedom as
           vibrations may cause significant error
 Vibrational temperatures:    143.49   189.38   267.30   304.90   378.43
          (Kelvin)            415.22   425.88   517.66   540.48   573.47
                              616.32   696.86   767.07   820.32   839.95
                              932.46  1009.56  1041.24  1069.07  1109.18
                             1146.92  1157.27  1167.12  1175.80  1236.28
                             1256.97  1315.97  1374.99  1396.27  1424.98
                             1446.49  1493.57  1530.94  1541.96  1584.76
                             1613.58  1691.80  1808.47  1824.92  1855.78
                             1870.36  1880.72  1926.99  2014.60  2174.51
                             2282.72  2305.05  2373.66  2395.30  2405.79
                             2437.40  4432.05  4461.42  4536.95  4612.08
                             4627.42  4632.97  4668.23  5074.49  5207.18

 Zero-point correction=                           0.171044 (Hartree/Particle)
 Thermal correction to Energy=                    0.181227
 Thermal correction to Enthalpy=                  0.182172
 Thermal correction to Gibbs Free Energy=         0.136015
 Sum of electronic and zero-point Energies=           -517.108126
 Sum of electronic and thermal Energies=              -517.097943
 Sum of electronic and thermal Enthalpies=            -517.096998
 Sum of electronic and thermal Free Energies=         -517.143155

                     E (Thermal)             CV                S
                      KCal/Mol        Cal/Mol-Kelvin    Cal/Mol-Kelvin
 Total                  113.722             42.009             97.145
 Electronic               0.000              0.000              0.000
 Translational            0.889              2.981             41.248
 Rotational               0.889              2.981             30.648
 Vibrational            111.944             36.048             25.249
 Vibration     1          0.604              1.949              3.460
 Vibration     2          0.612              1.922              2.922
 Vibration     3          0.632              1.859              2.269
 Vibration     4          0.643              1.823              2.027
 Vibration     5          0.670              1.741              1.642
 Vibration     6          0.685              1.695              1.482
 Vibration     7          0.690              1.681              1.439
 Vibration     8          0.734              1.555              1.123
 Vibration     9          0.746              1.522              1.057
 Vibration    10          0.765              1.473              0.968
 Vibration    11          0.790              1.409              0.864
 Vibration    12          0.840              1.285              0.698
 Vibration    13          0.888              1.177              0.580
 Vibration    14          0.926              1.096              0.504
 Vibration    15          0.941              1.066              0.478

                           ! Non-Optimized Parameters !
 Normal termination of Gaussian 16 at Tue May 16 17:08:53 2023.
