 Gaussian 16, Revision A.03,
 Gaussian 16:  ES64L-G16RevA.03 25-Dec-2016

 -----------------------------
 # opt freq b3lyp/6-31g(2df,p)
 -----------------------------

 -------------------
 Title Card Required
 -------------------
 Symbolic Z-matrix:
 Charge =  0 Multiplicity = 1

 SCF Done:  E(RB3LYP) =  -641.575207442     A.U. after   32 cycles
 SCF Done:  E(RB3LYP) =  -641.720695282     A.U. after   23 cycles
 SCF Done:  E(RB3LYP) =  -641.931579715     A.U. after   22 cycles
 SCF Done:  E(RB3LYP) =  -642.090316089     A.U. after   22 cycles
 SCF Done:  E(RB3LYP) =  -642.267901016     A.U. after   19 cycles
 SCF Done:  E(RB3LYP) =  -642.383954226     A.U. after   19 cycles
 SCF Done:  E(RB3LYP) =  -642.460455512     A.U. after   17 cycles
 SCF Done:  E(RB3LYP) =  -642.532158964     A.U. after   16 cycles
 SCF Done:  E(RB3LYP) =  -642.620670045     A.U. after   17 cycles
 SCF Done:  E(RB3LYP) =  -642.627690602     A.U. after   14 cycles
 SCF Done:  E(RB3LYP) =  -642.928326537     A.U. after   10 cycles
 SCF Done:  E(RB3LYP) =  -642.928332529     A.U. after    8 cycles
 SCF Done:  E(RB3LYP) =  -642.928334168     A.U. after    8 cycles
 SCF Done:  E(RB3LYP) =  -642.928335593     A.U. after    8 cycles
 SCF Done:  E(RB3LYP) =  -642.928336493     A.U. after    8 cycles
 SCF Done:  E(RB3LYP) =  -642.928336777     A.U. after    7 cycles
 SCF Done:  E(RB3LYP) =  -642.928337152     A.U. after    7 cycles
 SCF Done:  E(RB3LYP) =  -642.928337344     A.U. after    7 cycles
 SCF Done:  E(RB3LYP) =  -642.928337455     A.U. after    7 cycles
 Optimization completed.
    -- Stationary point found.
 Normal termination of Gaussian 16 at Wed May 17 11:39:02 2023.

 ----------------------------------------------------------------------
 #N Geom=AllCheck Guess=TCheck SCRF=Check GenChk RB3LYP/6-31G(2df,p) Fr
 eq
 ----------------------------------------------------------------------

 Structure from the checkpoint file:  "NC1CdCCdCNdCCdNCqCdOrdN1.chk"
 -------------------
 Title Card Required
 -------------------
 Charge =  0 Multiplicity = 1

                         Standard orientation:
 ---------------------------------------------------------------------
 Center     Atomic      Atomic             Coordinates (Angstroms)
 Number     Number       Type             X           Y           Z
 ---------------------------------------------------------------------
      1          7           0        5.894396    0.405404   -0.148173
      2          6           0        3.597615    0.173553   -0.761025
      3          6           0        4.708744   -0.529223    0.020938
      4          6           0        3.602310    0.059507    0.772122
      5          6           0        2.491840   -0.605758    0.023077
      6          6           0        1.176322    0.033699    0.020524
      7          7           0        0.078570   -0.629687    0.034320
      8          6           0       -1.101798    0.097072    0.005469
      9          6           0       -2.281492   -0.535175    0.009488
     10          7           0       -3.546805    0.130686   -0.012146
     11          6           0       -3.567178    1.485561   -0.009435
     12          6           0       -4.794683   -0.451300   -0.032462
     13          8           0       -4.616027   -1.774155   -0.032600
     14          7           0       -3.533714    2.642299   -0.006392
     15          1           0        6.309600    0.742648    0.721192
     16          1           0        6.626573   -0.001323   -0.731444
     17          1           0        5.411807    1.171534   -0.672345
     18          1           0        5.037807   -1.570403    0.034922
     19          1           0        3.583961    0.789139    1.575034
     20          1           0        2.443113   -1.696956    0.016574
     21          1           0        1.186842    1.135227   -0.012009
     22          1           0       -1.055390    1.189847   -0.019672
     23          1           0       -2.357605   -1.609974    0.029744
     24          1           0       -5.495692   -2.165030   -0.046640
 ---------------------------------------------------------------------

 SCF Done:  E(RB3LYP) =  -642.928337455     A.U. after    1 cycles

 The electronic state is 1-A.
 Alpha  occ. eigenvalues --  -19.20003 -14.47088 -14.41457 -14.32058 -14.30860
 Alpha  occ. eigenvalues --  -10.25108 -10.24109 -10.23980 -10.21497 -10.21096
 Alpha  occ. eigenvalues --  -10.20589 -10.18518 -10.17851 -10.14322  -1.09734
 Alpha  occ. eigenvalues --   -1.02124  -0.99004  -0.91671  -0.88725  -0.88557
 Alpha  occ. eigenvalues --   -0.76702  -0.70461  -0.68697  -0.64135  -0.61452
 Alpha  occ. eigenvalues --   -0.60789  -0.58266  -0.54962  -0.53831  -0.52438
 Alpha  occ. eigenvalues --   -0.50311  -0.48158  -0.47460  -0.46161  -0.45460
 Alpha  occ. eigenvalues --   -0.41656  -0.39951  -0.38696  -0.38226  -0.36378
 Alpha  occ. eigenvalues --   -0.35549  -0.35458  -0.32836  -0.30666  -0.28373
 Alpha  occ. eigenvalues --   -0.24382  -0.22935  -0.22777  -0.21170  -0.17708
 Alpha virt. eigenvalues --   -0.03403   0.00195   0.00421   0.04187   0.05551
 Alpha virt. eigenvalues --    0.06218   0.07620   0.08059   0.11262   0.12455
 Alpha virt. eigenvalues --    0.12513   0.13252   0.13817   0.14875   0.16200

 Mulliken charges:
               1
     1  N   -0.400335
     2  C   -0.298274
     3  C   -0.092764
     4  C   -0.133745
     5  C   -0.133102
     6  C    0.091710
     7  N   -0.248192
     8  C   -0.037311
     9  C   -0.070362
    10  N   -0.143170
    11  C    0.430398
    12  C   -0.109501
    13  O   -0.302624
    14  N   -0.357256
    15  H    0.305474
    16  H    0.305243
    17  H    0.279439
    18  H    0.084101
    19  H    0.083360
    20  H    0.067315
    21  H    0.084231
    22  H    0.115205
    23  H    0.152167
    24  H    0.327992
 Sum of Mulliken charges =  -0.00000

 Dipole moment (field-independent basis, Debye):
    X=             10.8751    Y=             -2.6261    Z=              1.5261  Tot=             11.2913
 Quadrupole moment (field-independent basis, Debye-Ang):
   XX=             -9.7976   YY=            -86.4031   ZZ=            -84.0027
   XY=             26.3925   XZ=              4.6631   YZ=              2.3586

  Exact polarizability: 269.701  17.583 121.683  -0.807   0.677  74.680
 Approx polarizability: 337.700  40.046 206.504  -0.277   0.839 129.002

                      1                      2                      3
                      A                      A                      A
 Frequencies --     29.5178                46.8396                55.3495
 Red. masses --      4.3799                 5.9330                 3.1969
 Frc consts  --      0.0022                 0.0077                 0.0058
 IR Inten    --      7.4621                 5.9499                 2.7524

                      4                      5                      6
                      A                      A                      A
 Frequencies --    106.4439               112.4863               161.0406
 Red. masses --      4.3995                 5.1401                 2.8033
 Frc consts  --      0.0294                 0.0383                 0.0428
 IR Inten    --      2.1033                 6.5825                 3.1480

                      7                      8                      9
                      A                      A                      A
 Frequencies --    163.1128               188.0880               210.6872
 Red. masses --      6.0947                 5.5980                 3.4641
 Frc consts  --      0.0955                 0.1167                 0.0906
 IR Inten    --     12.8699                 2.9320                30.5276

                     10                     11                     12
                      A                      A                      A
 Frequencies --    245.6394               267.1285               284.7012
 Red. masses --      1.4283                 3.8488                 6.0562
 Frc consts  --      0.0508                 0.1618                 0.2892
 IR Inten    --      6.6198                 3.8760                 9.4228

                     13                     14                     15
                      A                      A                      A
 Frequencies --    295.3012               362.5337               395.9975
 Red. masses --      3.2718                 4.1510                 2.8068
 Frc consts  --      0.1681                 0.3214                 0.2593
 IR Inten    --     38.8353                37.5043                13.7304

                     16                     17                     18
                      A                      A                      A
 Frequencies --    449.0685               459.2515               532.6186
 Red. masses --      4.1575                 5.8404                 5.3731
 Frc consts  --      0.4940                 0.7258                 0.8981
 IR Inten    --     27.7911                 0.3257                 4.7893

                     19                     20                     21
                      A                      A                      A
 Frequencies --    560.6719               574.9253               586.3119
 Red. masses --      4.2367                 7.8123                10.2018
 Frc consts  --      0.7847                 1.5214                 2.0663
 IR Inten    --     23.1573                17.3248                 5.1933

                     22                     23                     24
                      A                      A                      A
 Frequencies --    650.9448               695.3789               697.2056
 Red. masses --      6.0339                 1.3017                 3.0328
 Frc consts  --      1.5064                 0.3708                 0.8686
 IR Inten    --     21.0699                86.0967                27.4905

                     25                     26                     27
                      A                      A                      A
 Frequencies --    789.6881               814.6773               840.7019
 Red. masses --      1.8240                 3.0024                 2.8981
 Frc consts  --      0.6702                 1.1740                 1.2068
 IR Inten    --      8.6011                 2.9923                26.3941

                     28                     29                     30
                      A                      A                      A
 Frequencies --    862.0839               882.3226               921.8801
 Red. masses --      1.7707                 4.1907                 1.9586
 Frc consts  --      0.7753                 1.9222                 0.9807
 IR Inten    --     12.3084                19.6235                12.3010

                     31                     32                     33
                      A                      A                      A
 Frequencies --    966.5395               975.2963              1003.1016
 Red. masses --      1.2391                 1.2666                 1.5681
 Frc consts  --      0.6820                 0.7098                 0.9296
 IR Inten    --     18.1231                52.0783                36.1802

                     34                     35                     36
                      A                      A                      A
 Frequencies --   1019.5882              1069.3760              1082.7286
 Red. masses --      1.6352                 1.2377                 1.9644
 Frc consts  --      1.0016                 0.8339                 1.3568
 IR Inten    --      9.9260                 8.7598                36.1054

                     37                     38                     39
                      A                      A                      A
 Frequencies --   1118.2392              1143.4592              1177.9936
 Red. masses --      2.1293                 2.4722                 3.3564
 Frc consts  --      1.5688                 1.9045                 2.7442
 IR Inten    --     12.3316               178.4266                86.4626

                     40                     41                     42
                      A                      A                      A
 Frequencies --   1195.7468              1216.1450              1232.1262
 Red. masses --      2.6563                 3.5308                 1.8559
 Frc consts  --      2.2377                 3.0768                 1.6600
 IR Inten    --    200.7285                48.1639                26.7764

                     43                     44                     45
                      A                      A                      A
 Frequencies --   1248.0136              1277.2772              1316.0338
 Red. masses --      1.9700                 3.5304                 1.5050
 Frc consts  --      1.8078                 3.3935                 1.5358
 IR Inten    --     22.5063               211.0204                48.7985

                     46                     47                     48
                      A                      A                      A
 Frequencies --   1326.6463              1350.6484              1357.2512
 Red. masses --      1.4512                 1.1991                 1.7340
 Frc consts  --      1.5048                 1.2888                 1.8820
 IR Inten    --      3.2434               252.1714               110.9652

                     49                     50                     51
                      A                      A                      A
 Frequencies --   1366.3916              1380.7248              1421.6364
 Red. masses --      1.8932                 1.9190                 1.8769
 Frc consts  --      2.0826                 2.1555                 2.2350
 IR Inten    --     32.3125               109.2862                16.1804

                     52                     53                     54
                      A                      A                      A
 Frequencies --   1612.5460              1622.3423              1675.3524
 Red. masses --      1.0578                 1.0507                 7.2317
 Frc consts  --      1.6205                 1.6294                11.9591
 IR Inten    --      6.2967                24.4046               342.0648

                     55                     56                     57
                      A                      A                      A
 Frequencies --   1714.8744              2370.8462              2990.1789
 Red. masses --      5.7410                12.6544                 1.0844
 Frc consts  --      9.9473                41.9082                 5.7129
 IR Inten    --     65.0577                78.7561                34.0578

                     58                     59                     60
                      A                      A                      A
 Frequencies --   3066.5870              3069.5076              3078.1361
 Red. masses --      1.0839                 1.0863                 1.0881
 Frc consts  --      6.0055                 6.0305                 6.0740
 IR Inten    --    124.6549                52.2498                32.6295

                     61                     62                     63
                      A                      A                      A
 Frequencies --   3081.8374              3135.5528              3279.0072
 Red. masses --      1.0659                 1.0923                 1.0909
 Frc consts  --      5.9646                 6.3275                 6.9104
 IR Inten    --    199.5698                42.7398                15.4470

                     64                     65                     66
                      A                      A                      A
 Frequencies --   3452.5988              3524.4987              3831.5969
 Red. masses --      1.0552                 1.0950                 1.0668
 Frc consts  --      7.4113                 8.0140                 9.2273
 IR Inten    --     35.6902                41.4029               236.8851

 - Thermochemistry -
 -------------------
 Temperature   298.150 Kelvin.  Pressure   1.00000 Atm.
 Atom     1 has atomic number  7 and mass  14.00307

 Molecular mass:   190.08546 amu.
 Principal axes and moments of inertia in atomic units:
                           1         2         3
     Eigenvalues --   832.871899161.411709862.20262
           X            0.99997   0.00740   0.00090
           Y           -0.00741   0.99996   0.00471
           Z           -0.00087  -0.00471   0.99999
 This molecule is an asymmetric top.
 Rotational symmetry number  1.
 Warning -- assumption of classical behavior for rotation
           may cause significant error
 Rotational temperatures (Kelvin)      0.10399     0.00945     0.00878
 Rotational constants (GHZ):           2.16689     0.19699     0.18300
 Zero-point vibrational energy     478464.5 (Joules/Mol)
                                  114.35577 (Kcal/Mol)
 Warning -- explicit consideration of  21 degrees of freedom as
           vibrations may cause significant error
 Vibrational temperatures:     42.47    67.39    79.64   153.15   161.84
          (Kelvin)            231.70   234.68   270.62   303.13   353.42
                              384.34   409.62   424.87   521.61   569.75
                              646.11   660.76   766.32   806.68   827.19
                              843.57   936.56  1000.50  1003.12  1136.19
                             1172.14  1209.58  1240.35  1269.47  1326.38
                             1390.63  1403.23  1443.24  1466.96  1538.59
                             1557.80  1608.90  1645.18  1694.87  1720.41
                             1749.76  1772.75  1795.61  1837.72  1893.48
                             1908.75  1943.28  1952.78  1965.93  1986.56
                             2045.42  2320.09  2334.19  2410.46  2467.32
                             3411.12  4302.20  4412.13  4416.34  4428.75
                             4434.08  4511.36  4717.76  4967.52  5070.97
                             5512.81

 Zero-point correction=                           0.182238 (Hartree/Particle)
 Thermal correction to Energy=                    0.196316
 Thermal correction to Enthalpy=                  0.197260
 Thermal correction to Gibbs Free Energy=         0.139889
 Sum of electronic and zero-point Energies=           -642.746100
 Sum of electronic and thermal Energies=              -642.732021
 Sum of electronic and thermal Enthalpies=            -642.731077
 Sum of electronic and thermal Free Energies=         -642.788448

                     E (Thermal)             CV                S
                      KCal/Mol        Cal/Mol-Kelvin    Cal/Mol-Kelvin
 Total                  123.190             51.165            120.748
 Electronic               0.000              0.000              0.000
 Translational            0.889              2.981             41.633
 Rotational               0.889              2.981             32.687
 Vibrational            121.413             45.203             46.428
 Vibration     1          0.593              1.984              5.862
 Vibration     2          0.595              1.979              4.947
 Vibration     3          0.596              1.975              4.616
 Vibration     4          0.605              1.944              3.333
 Vibration     5          0.607              1.939              3.226
 Vibration     6          0.622              1.890              2.538
 Vibration     7          0.623              1.888              2.513
 Vibration     8          0.633              1.856              2.247
 Vibration     9          0.643              1.825              2.038
 Vibration    10          0.660              1.770              1.762
 Vibration    11          0.672              1.733              1.615
 Vibration    12          0.683              1.702              1.505
 Vibration    13          0.690              1.682              1.443
 Vibration    14          0.736              1.549              1.111
 Vibration    15          0.763              1.479              0.977
 Vibration    16          0.808              1.363              0.799
 Vibration    17          0.817              1.340              0.768
 Vibration    18          0.888              1.178              0.581
 Vibration    19          0.916              1.116              0.522
 Vibration    20          0.931              1.085              0.495
 Vibration    21          0.943              1.061              0.474

                           ! Non-Optimized Parameters !
 Normal termination of Gaussian 16 at Wed May 17 12:33:56 2023.
