 Gaussian 16, Revision A.03,
 Gaussian 16:  ES64L-G16RevA.03 25-Dec-2016

 -----------------------------
 # opt freq b3lyp/6-31g(2df,p)
 -----------------------------

 -------------------
 Title Card Required
 -------------------
 Symbolic Z-matrix:
 Charge =  0 Multiplicity = 1

 SCF Done:  E(RB3LYP) =  -765.103459622     A.U. after   23 cycles
 SCF Done:  E(RB3LYP) =  -765.195837940     A.U. after   16 cycles
 SCF Done:  E(RB3LYP) =  -765.312417123     A.U. after   16 cycles
 SCF Done:  E(RB3LYP) =  -765.390439204     A.U. after   16 cycles
 SCF Done:  E(RB3LYP) =  -765.458669808     A.U. after   15 cycles
 SCF Done:  E(RB3LYP) =  -765.489825141     A.U. after   15 cycles
 SCF Done:  E(RB3LYP) =  -765.509144881     A.U. after   15 cycles
 SCF Done:  E(RB3LYP) =  -765.522727178     A.U. after   15 cycles
 SCF Done:  E(RB3LYP) =  -765.530483905     A.U. after   14 cycles
 SCF Done:  E(RB3LYP) =  -765.534680558     A.U. after   15 cycles
 SCF Done:  E(RB3LYP) =  -765.552046756     A.U. after   13 cycles
 SCF Done:  E(RB3LYP) =  -765.552243576     A.U. after   13 cycles
 SCF Done:  E(RB3LYP) =  -765.552311471     A.U. after   12 cycles
 SCF Done:  E(RB3LYP) =  -765.552358971     A.U. after   11 cycles
 SCF Done:  E(RB3LYP) =  -765.552376537     A.U. after   10 cycles
 SCF Done:  E(RB3LYP) =  -765.552382040     A.U. after   10 cycles
 SCF Done:  E(RB3LYP) =  -765.552385260     A.U. after   10 cycles
 SCF Done:  E(RB3LYP) =  -765.552385672     A.U. after    8 cycles
 SCF Done:  E(RB3LYP) =  -765.552385790     A.U. after    8 cycles
 Optimization completed.
    -- Stationary point found.

 The electronic state is 1-A.
 Alpha  occ. eigenvalues --  -14.34331 -14.31424 -10.22927 -10.22195 -10.20950
 Alpha  occ. eigenvalues --  -10.20430 -10.20380 -10.19890 -10.19399 -10.19199
 Alpha  occ. eigenvalues --  -10.19188 -10.19002 -10.18418 -10.18098 -10.17823
 Alpha  occ. eigenvalues --  -10.17286 -10.17224 -10.17153 -10.16817  -0.93356
 Alpha  occ. eigenvalues --   -0.91184  -0.86028  -0.81977  -0.81116  -0.79382
 Alpha  occ. eigenvalues --   -0.75244  -0.73815  -0.70388  -0.69849  -0.64758
 Alpha  occ. eigenvalues --   -0.64598  -0.59244  -0.58444  -0.56637  -0.54937
 Alpha  occ. eigenvalues --   -0.53601  -0.52235  -0.51511  -0.50069  -0.48677
 Alpha  occ. eigenvalues --   -0.47933  -0.46804  -0.44957  -0.43900  -0.42402
 Alpha  occ. eigenvalues --   -0.41114  -0.40623  -0.39486  -0.38661  -0.37401
 Alpha  occ. eigenvalues --   -0.37092  -0.36603  -0.36127  -0.35786  -0.34282
 Alpha  occ. eigenvalues --   -0.33068  -0.32665  -0.30512  -0.29272  -0.27542
 Alpha  occ. eigenvalues --   -0.23513  -0.20830  -0.20122  -0.18918  -0.17976
 Alpha virt. eigenvalues --   -0.07884  -0.05115  -0.03137   0.00936   0.03421
 Alpha virt. eigenvalues --    0.06348   0.08238   0.09024   0.09696   0.10373
 Alpha virt. eigenvalues --    0.11927   0.12673   0.13406   0.14069   0.15019

 Mulliken charges:
               1
     1  N   -0.569011
     2  C    0.312955
     3  C   -0.239056
     4  C   -0.036205
     5  C   -0.069643
     6  C   -0.211311
     7  C    0.195854
     8  C   -0.272562
     9  C    0.158562
    10  C   -0.183811
    11  C   -0.138507
    12  C   -0.159334
    13  C    0.176633
    14  C   -0.160819
    15  C   -0.083799
    16  C   -0.151936
    17  C    0.074419
    18  N   -0.141673
    19  C   -0.157323
    20  H    0.255714
    21  H    0.247349
    22  H    0.103942
    23  H    0.107061
    24  H    0.102559
    25  H    0.097411
    26  H    0.092049
    27  H    0.094143
    28  H    0.096598
    29  H    0.094580
    30  H    0.099124
    31  H    0.094928
    32  H    0.101303
    33  H    0.069804
 Sum of Mulliken charges =  -0.00000

 Dipole moment (field-independent basis, Debye):
    X=              2.4308    Y=              2.3498    Z=             -0.0390  Tot=              3.3811
 Quadrupole moment (field-independent basis, Debye-Ang):
   XX=            -92.3343   YY=            -99.4975   ZZ=           -110.1161
   XY=              5.5224   XZ=             -1.4323   YZ=              2.2346

 Normal termination of Gaussian 16 at Mon May 15 23:53:39 2023.

 ----------------------------------------------------------------------
 #N Geom=AllCheck Guess=TCheck SCRF=Check GenChk RB3LYP/6-31G(2df,p) Fr
 eq
 ----------------------------------------------------------------------

 Structure from the checkpoint file:  "Nc1ccccc2cc3cccc-3cccc-2nc1.chk"
 -------------------
 Title Card Required
 -------------------
 Charge =  0 Multiplicity = 1

                         Standard orientation:
 ---------------------------------------------------------------------
 Center     Atomic      Atomic             Coordinates (Angstroms)
 Number     Number       Type             X           Y           Z
 ---------------------------------------------------------------------
      1          7           0        4.747145    1.148655   -1.485129
      2          6           0        3.783985    0.513298   -0.724347
      3          6           0        3.846870   -0.888971   -0.490669
      4          6           0        3.064433   -1.345015    0.571649
      5          6           0        1.893345   -2.140060    0.478326
      6          6           0        0.883527   -1.701087    1.310287
      7          6           0       -0.237862   -0.943347    0.709837
      8          6           0       -1.456674   -1.412163    0.398521
      9          6           0       -2.616181   -0.779343   -0.180851
     10          6           0       -3.603872   -1.501122   -0.802164
     11          6           0       -4.657426   -0.621750   -1.263719
     12          6           0       -4.348424    0.646586   -0.891205
     13          6           0       -3.069857    0.634908   -0.183114
     14          6           0       -2.623938    1.767182    0.427923
     15          6           0       -1.450457    2.136231    1.175884
     16          6           0       -0.197668    1.624239    1.199365
     17          6           0        0.364653    0.456069    0.523683
     18          7           0        1.537295    0.487547   -0.010187
     19          6           0        2.593964    1.204750   -0.351518
     20          1           0        5.707311    0.906196   -1.301502
     21          1           0        4.605160    2.129951   -1.670826
     22          1           0        4.159205   -1.529265   -1.311755
     23          1           0        3.118672   -0.746618    1.477689
     24          1           0        1.647235   -2.570294   -0.489290
     25          1           0        1.205083   -1.291077    2.270608
     26          1           0       -1.598264   -2.475823    0.586313
     27          1           0       -3.590406   -2.576028   -0.933453
     28          1           0       -5.538924   -0.941074   -1.803689
     29          1           0       -4.930659    1.543022   -1.056278
     30          1           0       -3.314948    2.604685    0.329485
     31          1           0       -1.572206    3.076382    1.710587
     32          1           0        0.548648    2.223975    1.723477
     33          1           0        2.552501    2.290122   -0.511475
 ---------------------------------------------------------------------

 SCF Done:  E(RB3LYP) =  -765.552385790     A.U. after    1 cycles
