 Gaussian 16, Revision A.03,
 Gaussian 16:  ES64L-G16RevA.03 25-Dec-2016

 -----------------------------
 # opt freq b3lyp/6-31g(2df,p)
 -----------------------------

 -------------------
 Title Card Required
 -------------------
 Symbolic Z-matrix:
 Charge =  0 Multiplicity = 1

 SCF Done:  E(RB3LYP) =  -1253.37940534     A.U. after   20 cycles
 SCF Done:  E(RB3LYP) =  -1253.41779906     A.U. after   15 cycles
 SCF Done:  E(RB3LYP) =  -1253.44535781     A.U. after   16 cycles
 SCF Done:  E(RB3LYP) =  -1253.45180638     A.U. after   15 cycles
 SCF Done:  E(RB3LYP) =  -1253.45719449     A.U. after   16 cycles
 SCF Done:  E(RB3LYP) =  -1253.45863645     A.U. after   15 cycles
 SCF Done:  E(RB3LYP) =  -1253.45944805     A.U. after   14 cycles
 SCF Done:  E(RB3LYP) =  -1253.45966337     A.U. after   13 cycles
 SCF Done:  E(RB3LYP) =  -1253.45975719     A.U. after   13 cycles
 SCF Done:  E(RB3LYP) =  -1253.45980122     A.U. after   11 cycles
 SCF Done:  E(RB3LYP) =  -1253.45982103     A.U. after   12 cycles
 SCF Done:  E(RB3LYP) =  -1253.45982823     A.U. after   10 cycles
 SCF Done:  E(RB3LYP) =  -1253.45983254     A.U. after    9 cycles
 SCF Done:  E(RB3LYP) =  -1253.45983382     A.U. after    9 cycles
 SCF Done:  E(RB3LYP) =  -1253.45983439     A.U. after    9 cycles
 SCF Done:  E(RB3LYP) =  -1253.45983501     A.U. after   10 cycles
 SCF Done:  E(RB3LYP) =  -1253.45983566     A.U. after   10 cycles
 SCF Done:  E(RB3LYP) =  -1253.45983598     A.U. after   10 cycles
 SCF Done:  E(RB3LYP) =  -1253.45983604     A.U. after    8 cycles
 Optimization completed.
    -- Stationary point found.
 Normal termination of Gaussian 16 at Mon May 15 19:38:34 2023.

 ----------------------------------------------------------------------
 #N Geom=AllCheck Guess=TCheck SCRF=Check GenChk RB3LYP/6-31G(2df,p) Fr
 eq
 ----------------------------------------------------------------------

 Structure from the checkpoint file:  "NC1dCCdCCdC2CdCSqdSrC2dN1.chk"
 -------------------
 Title Card Required
 -------------------
 Charge =  0 Multiplicity = 1

                         Standard orientation:
 ---------------------------------------------------------------------
 Center     Atomic      Atomic             Coordinates (Angstroms)
 Number     Number       Type             X           Y           Z
 ---------------------------------------------------------------------
      1          7           0        2.113281   -2.450671    1.024901
      2          6           0        1.985612   -1.347847    0.215039
      3          6           0        3.018216   -0.657160   -0.318293
      4          6           0        2.988654    0.590082   -1.046988
      5          6           0        2.236670    1.712898   -0.931511
      6          6           0        1.195623    2.093902    0.003799
      7          6           0        0.229388    1.379523    0.618681
      8          6           0       -0.978346    1.740674    1.376179
      9          6           0       -1.989751    1.529155    0.457222
     10         16           0       -2.151483   -0.234875    0.436641
     11         16           0       -3.088037   -0.986851   -1.120637
     12          6           0       -0.058693   -0.088044    0.203327
     13          7           0        0.623795   -1.076121   -0.027015
     14          1           0        3.044351   -2.815615    1.152299
     15          1           0        1.389736   -3.148299    0.933626
     16          1           0        3.997309   -1.121945   -0.228883
     17          1           0        3.789925    0.668677   -1.781161
     18          1           0        2.526120    2.529826   -1.588181
     19          1           0        1.142665    3.166225    0.186926
     20          1           0       -1.080655    1.296022    2.367924
     21          1           0       -1.900900    1.941179   -0.548530
 ---------------------------------------------------------------------

 SCF Done:  E(RB3LYP) =  -1253.45983604     A.U. after    1 cycles

 The electronic state is 1-A.
 Alpha  occ. eigenvalues --  -88.96529 -88.83195 -14.37079 -14.36837 -10.28800
 Alpha  occ. eigenvalues --  -10.28771 -10.23910 -10.22546 -10.22369 -10.21309
 Alpha  occ. eigenvalues --  -10.21237 -10.19849 -10.18877  -8.01818  -7.89823
 Alpha  occ. eigenvalues --   -5.98144  -5.98062  -5.97630  -5.86454  -5.85638
 Alpha  occ. eigenvalues --   -5.85414  -0.99536  -0.92786  -0.88035  -0.82869
 Alpha  occ. eigenvalues --   -0.79809  -0.76431  -0.71975  -0.69240  -0.63832
 Alpha  occ. eigenvalues --   -0.60594  -0.59859  -0.56714  -0.54223  -0.52792
 Alpha  occ. eigenvalues --   -0.50071  -0.48427  -0.46294  -0.44845  -0.44633
 Alpha  occ. eigenvalues --   -0.42705  -0.41359  -0.39814  -0.38428  -0.37136
 Alpha  occ. eigenvalues --   -0.35739  -0.33015  -0.32535  -0.30088  -0.27902
 Alpha  occ. eigenvalues --   -0.24071  -0.22448  -0.20256  -0.20187
 Alpha virt. eigenvalues --   -0.11238  -0.08384  -0.02855  -0.00133   0.02984
 Alpha virt. eigenvalues --    0.03437   0.06888   0.07607   0.08176   0.09391
 Alpha virt. eigenvalues --    0.11837   0.12954   0.13662   0.14904   0.16801

 Mulliken charges:
               1
     1  N   -0.534044
     2  C    0.334189
     3  C   -0.189634
     4  C   -0.086043
     5  C   -0.115247
     6  C   -0.155764
     7  C    0.150736
     8  C   -0.251031
     9  C   -0.123624
    10  S    0.196793
    11  S   -0.371896
    12  C    0.181425
    13  N   -0.265228
    14  H    0.264292
    15  H    0.271914
    16  H    0.085005
    17  H    0.106174
    18  H    0.098701
    19  H    0.127795
    20  H    0.130244
    21  H    0.145243
 Sum of Mulliken charges =   0.00000

 Dipole moment (field-independent basis, Debye):
    X=              5.8484    Y=             -0.0450    Z=              1.8026  Tot=              6.1201
 Quadrupole moment (field-independent basis, Debye-Ang):
   XX=            -92.6800   YY=            -78.4852   ZZ=            -90.5892
   XY=             -9.6695   XZ=             -4.4486   YZ=             -6.0839

  Exact polarizability: 231.473   8.611 168.667   0.033   1.791 113.940
 Approx polarizability: 402.761  22.341 348.770   3.599  26.315 227.606

                      1                      2                      3
                      A                      A                      A
 Frequencies --     40.8152                51.0136               101.7839
 Red. masses --      6.5432                10.5437                 6.2392
 Frc consts  --      0.0064                 0.0162                 0.0381
 IR Inten    --      0.4125                 1.6542                 3.9109

                      4                      5                      6
                      A                      A                      A
 Frequencies --    127.6881               165.9979               192.5173
 Red. masses --      4.7425                 4.8806                 5.4992
 Frc consts  --      0.0456                 0.0792                 0.1201
 IR Inten    --      1.9603                16.3743                 3.4030

                      7                      8                      9
                      A                      A                      A
 Frequencies --    212.0292               253.0030               267.4199
 Red. masses --      5.6217                 6.1184                 4.2171
 Frc consts  --      0.1489                 0.2307                 0.1777
 IR Inten    --      3.6993                12.2325                 4.5778

                     10                     11                     12
                      A                      A                      A
 Frequencies --    301.2565               343.4553               400.8883
 Red. masses --      6.9071                 6.1136                 1.3778
 Frc consts  --      0.3693                 0.4249                 0.1305
 IR Inten    --      8.4700                 2.3429                23.3390

                     13                     14                     15
                      A                      A                      A
 Frequencies --    438.4544               471.3376               487.2756
 Red. masses --      2.0934                 4.0897                 3.4219
 Frc consts  --      0.2371                 0.5353                 0.4787
 IR Inten    --      7.3606                18.6355                18.6034

                     16                     17                     18
                      A                      A                      A
 Frequencies --    495.9556               542.0000               569.6422
 Red. masses --      1.5495                 3.6840                 4.6117
 Frc consts  --      0.2246                 0.6376                 0.8817
 IR Inten    --    239.6586                42.1190                16.2219

                     19                     20                     21
                      A                      A                      A
 Frequencies --    596.5075               616.7557               637.3050
 Red. masses --      4.6431                 3.4585                 9.3720
 Frc consts  --      0.9734                 0.7751                 2.2427
 IR Inten    --     18.3154                24.2927               116.0090

                     22                     23                     24
                      A                      A                      A
 Frequencies --    661.0360               676.9929               699.3616
 Red. masses --      4.2911                 4.1039                 4.0481
 Frc consts  --      1.1048                 1.1082                 1.1666
 IR Inten    --     18.9228                 3.1373                24.9993

                     25                     26                     27
                      A                      A                      A
 Frequencies --    744.8201               762.3190               794.0013
 Red. masses --      1.5576                 2.3980                 2.0515
 Frc consts  --      0.5091                 0.8211                 0.7620
 IR Inten    --    141.5708                25.0791                23.9336

                     28                     29                     30
                      A                      A                      A
 Frequencies --    843.6815               862.4261               922.3548
 Red. masses --      2.7171                 4.4580                 1.9699
 Frc consts  --      1.1395                 1.9536                 0.9874
 IR Inten    --      8.0981                17.3003                14.0770

                     31                     32                     33
                      A                      A                      A
 Frequencies --    948.7446               993.8865              1014.0512
 Red. masses --      2.3269                 1.2728                 2.7693
 Frc consts  --      1.2340                 0.7408                 1.6778
 IR Inten    --      7.1560                 1.5494                 4.0911

                     34                     35                     36
                      A                      A                      A
 Frequencies --   1047.7981              1091.0110              1165.6465
 Red. masses --      1.4698                 2.1006                 1.4870
 Frc consts  --      0.9507                 1.4732                 1.1904
 IR Inten    --     14.9977                 2.0391                 6.1545

                     37                     38                     39
                      A                      A                      A
 Frequencies --   1195.9374              1283.5401              1302.2312
 Red. masses --      1.1481                 1.5108                 1.6663
 Frc consts  --      0.9675                 1.4665                 1.6648
 IR Inten    --      0.2066                53.0456                11.3588

                     40                     41                     42
                      A                      A                      A
 Frequencies --   1336.7539              1347.4848              1394.3958
 Red. masses --      1.4885                 1.5357                 2.8397
 Frc consts  --      1.5672                 1.6429                 3.2530
 IR Inten    --     34.5268                 7.5390                65.4979

                     43                     44                     45
                      A                      A                      A
 Frequencies --   1396.7342              1467.0061              1590.9298
 Red. masses --      1.7116                 1.5642                 7.0961
 Frc consts  --      1.9673                 1.9834                10.5820
 IR Inten    --     42.4557                 1.8351               176.3941

                     46                     47                     48
                      A                      A                      A
 Frequencies --   1628.7045              1666.6491              1689.3671
 Red. masses --      1.2516                 5.4758                 5.4652
 Frc consts  --      1.9562                 8.9617                 9.1897
 IR Inten    --    102.3047                10.4275               267.8205

                     49                     50                     51
                      A                      A                      A
 Frequencies --   1858.8613              3094.3647              3112.5433
 Red. masses --     12.6391                 1.0847                 1.0882
 Frc consts  --     25.7313                 6.1193                 6.2115
 IR Inten    --    472.2153                11.5688                 7.6235

                     52                     53                     54
                      A                      A                      A
 Frequencies --   3121.4326              3135.8129              3145.4454
 Red. masses --      1.0825                 1.0857                 1.0867
 Frc consts  --      6.2145                 6.2900                 6.3348
 IR Inten    --      6.8596                 6.1514                28.1920

                     55                     56                     57
                      A                      A                      A
 Frequencies --   3156.9998              3573.7284              3691.6132
 Red. masses --      1.0902                 1.0460                 1.1006
 Frc consts  --      6.4017                 7.8706                 8.8374
 IR Inten    --     25.6155                53.9823                26.6588

 - Thermochemistry -
 -------------------
 Temperature   298.150 Kelvin.  Pressure   1.00000 Atm.
 Atom     1 has atomic number  7 and mass  14.00307

 Molecular mass:   208.01289 amu.
 Principal axes and moments of inertia in atomic units:
                           1         2         3
     Eigenvalues --  1827.139473948.533004845.25166
           X            0.99982  -0.01666  -0.00911
           Y            0.01635   0.99931  -0.03323
           Z            0.00965   0.03307   0.99941
 This molecule is an asymmetric top.
 Rotational symmetry number  1.
 Warning -- assumption of classical behavior for rotation
           may cause significant error
 Rotational temperatures (Kelvin)      0.04740     0.02194     0.01788
 Rotational constants (GHZ):           0.98774     0.45707     0.37248
 Zero-point vibrational energy     393163.3 (Joules/Mol)
                                   93.96828 (Kcal/Mol)
 Warning -- explicit consideration of  20 degrees of freedom as
           vibrations may cause significant error
 Vibrational temperatures:     58.72    73.40   146.44   183.71   238.83
          (Kelvin)            276.99   305.06   364.01   384.76   433.44
                              494.16   576.79   630.84   678.15   701.08
                              713.57   779.82   819.59   858.24   887.37
                              916.94   951.08   974.04  1006.23  1071.63
                             1096.81  1142.39  1213.87  1240.84  1327.06
                             1365.03  1429.98  1458.99  1507.55  1569.72
                             1677.11  1720.69  1846.73  1873.62  1923.29
                             1938.73  2006.22  2009.59  2110.69  2288.99
                             2343.34  2397.94  2430.62  2674.49  4452.10
                             4478.26  4491.05  4511.74  4525.59  4542.22
                             5141.80  5311.41

 Zero-point correction=                           0.149748 (Hartree/Particle)
 Thermal correction to Energy=                    0.162353
 Thermal correction to Enthalpy=                  0.163297
 Thermal correction to Gibbs Free Energy=         0.110101
 Sum of electronic and zero-point Energies=          -1253.310088
 Sum of electronic and thermal Energies=             -1253.297483
 Sum of electronic and thermal Enthalpies=           -1253.296539
 Sum of electronic and thermal Free Energies=        -1253.349735

                     E (Thermal)             CV                S
                      KCal/Mol        Cal/Mol-Kelvin    Cal/Mol-Kelvin
 Total                  101.878             47.682            111.961
 Electronic               0.000              0.000              0.000
 Translational            0.889              2.981             41.901
 Rotational               0.889              2.981             31.925
 Vibrational            100.101             41.720             38.135
 Vibration     1          0.594              1.981              5.219
 Vibration     2          0.595              1.977              4.778
 Vibration     3          0.604              1.948              3.420
 Vibration     4          0.611              1.926              2.981
 Vibration     5          0.624              1.884              2.480
 Vibration     6          0.634              1.850              2.203
 Vibration     7          0.643              1.823              2.026
 Vibration     8          0.664              1.758              1.710
 Vibration     9          0.673              1.733              1.613
 Vibration    10          0.693              1.671              1.410
 Vibration    11          0.722              1.589              1.196
 Vibration    12          0.767              1.468              0.959
 Vibration    13          0.799              1.386              0.831
 Vibration    14          0.828              1.314              0.734
 Vibration    15          0.843              1.278              0.691
 Vibration    16          0.852              1.259              0.668
 Vibration    17          0.897              1.157              0.561
 Vibration    18          0.926              1.097              0.505
 Vibration    19          0.954              1.039              0.456
 Vibration    20          0.976              0.996              0.422

                           ! Non-Optimized Parameters !
 Normal termination of Gaussian 16 at Mon May 15 20:43:32 2023.
