 Gaussian 16, Revision A.03,
 Gaussian 16:  ES64L-G16RevA.03 25-Dec-2016

 -----------------------------
 # opt freq b3lyp/6-31g(2df,p)
 -----------------------------

 -------------------
 Title Card Required
 -------------------
 Symbolic Z-matrix:
 Charge =  0 Multiplicity = 1

 SCF Done:  E(RB3LYP) =  -834.137717617     A.U. after   24 cycles
 SCF Done:  E(RB3LYP) =  -834.255075856     A.U. after   20 cycles
 SCF Done:  E(RB3LYP) =  -834.257282620     A.U. after   20 cycles
 SCF Done:  E(RB3LYP) =  -834.318317443     A.U. after   16 cycles
 SCF Done:  E(RB3LYP) =  -834.258180879     A.U. after   26 cycles
 SCF Done:  E(RB3LYP) =  -834.335423591     A.U. after   19 cycles
 SCF Done:  E(RB3LYP) =  -834.358040894     A.U. after   17 cycles
 SCF Done:  E(RB3LYP) =  -834.390399089     A.U. after   16 cycles
 SCF Done:  E(RB3LYP) =  -834.445355724     A.U. after   17 cycles
 SCF Done:  E(RB3LYP) =  -834.463989723     A.U. after   17 cycles
 SCF Done:  E(RB3LYP) =  -834.731404565     A.U. after    9 cycles
 SCF Done:  E(RB3LYP) =  -834.731407968     A.U. after    9 cycles
 SCF Done:  E(RB3LYP) =  -834.731411393     A.U. after    9 cycles
 SCF Done:  E(RB3LYP) =  -834.731415600     A.U. after    9 cycles
 SCF Done:  E(RB3LYP) =  -834.731418911     A.U. after    9 cycles
 SCF Done:  E(RB3LYP) =  -834.731420483     A.U. after    8 cycles
 SCF Done:  E(RB3LYP) =  -834.731421125     A.U. after    8 cycles
 SCF Done:  E(RB3LYP) =  -834.731421526     A.U. after    8 cycles
 SCF Done:  E(RB3LYP) =  -834.731421814     A.U. after    7 cycles
 Optimization completed.
    -- Stationary point found.
 Normal termination of Gaussian 16 at Thu May 18 10:43:03 2023.

 ----------------------------------------------------------------------
 #N Geom=AllCheck Guess=TCheck SCRF=Check GenChk RB3LYP/6-31G(2df,p) Fr
 eq
 ----------------------------------------------------------------------

 Structure from the checkpoint file:  "NC1dCCdCNdC2CdNCdCCdCCqdOrNdCC1dC2.chk"
 -------------------
 Title Card Required
 -------------------
 Charge =  0 Multiplicity = 1

                         Standard orientation:
 ---------------------------------------------------------------------
 Center     Atomic      Atomic             Coordinates (Angstroms)
 Number     Number       Type             X           Y           Z
 ---------------------------------------------------------------------
      1          7           0        1.761189    2.729533    0.561159
      2          6           0        1.779752    1.378729    0.248758
      3          6           0        2.638090    0.876220   -0.705594
      4          6           0        2.953424   -0.441653   -1.212785
      5          6           0        2.568889   -1.750916   -1.037284
      6          7           0        1.512391   -2.338913   -0.390291
      7          6           0        0.906643   -1.995894    0.684047
      8          6           0       -0.488251   -2.351638    0.947076
      9          7           0       -1.280312   -2.602162   -0.045445
     10          6           0       -2.535107   -2.045988    0.077651
     11          6           0       -2.855562   -1.216942   -0.964590
     12          6           0       -3.026743    0.150144   -0.551757
     13          6           0       -2.318973    1.152192   -1.142187
     14          6           0       -1.526207    2.095046   -0.314812
     15          8           0       -1.036753    3.149780   -0.673331
     16          7           0       -1.364512    1.567777    0.974782
     17          6           0       -0.448924    0.832816    1.466281
     18          6           0        0.914688    0.458641    1.002486
     19          6           0        1.497582   -0.751680    1.302103
     20          1           0        2.278425    3.306815   -0.088720
     21          1           0        0.832265    3.114787    0.698068
     22          1           0        3.237325    1.643496   -1.196627
     23          1           0        3.731656   -0.375585   -1.971404
     24          1           0        3.117380   -2.472523   -1.637878
     25          1           0       -0.875134   -2.004990    1.914609
     26          1           0       -2.959567   -1.885158    1.074046
     27          1           0       -2.387066   -1.412451   -1.924635
     28          1           0       -3.364314    0.304897    0.468761
     29          1           0       -1.998043    1.084692   -2.178054
     30          1           0       -0.657068    0.452911    2.471227
     31          1           0        2.581071   -0.783248    1.259465
 ---------------------------------------------------------------------

 SCF Done:  E(RB3LYP) =  -834.731421814     A.U. after    1 cycles

 The electronic state is 1-A.
 Alpha  occ. eigenvalues --  -19.12505 -14.36220 -14.35519 -14.34350 -14.33900
 Alpha  occ. eigenvalues --  -10.29647 -10.26254 -10.25749 -10.25016 -10.24823
 Alpha  occ. eigenvalues --  -10.24193 -10.22835 -10.22357 -10.22138 -10.21747
 Alpha  occ. eigenvalues --  -10.20412 -10.20371 -10.19743 -10.19268  -1.04602
 Alpha  occ. eigenvalues --   -0.97191  -0.94324  -0.93929  -0.92123  -0.84192
 Alpha  occ. eigenvalues --   -0.81646  -0.79506  -0.77323  -0.71935  -0.70782
 Alpha  occ. eigenvalues --   -0.69311  -0.64540  -0.62193  -0.60328  -0.58889
 Alpha  occ. eigenvalues --   -0.57974  -0.54242  -0.53144  -0.51210  -0.50579
 Alpha  occ. eigenvalues --   -0.49485  -0.48927  -0.47672  -0.46572  -0.45501
 Alpha  occ. eigenvalues --   -0.44952  -0.43506  -0.42543  -0.42115  -0.41532
 Alpha  occ. eigenvalues --   -0.39875  -0.39005  -0.38413  -0.37412  -0.35587
 Alpha  occ. eigenvalues --   -0.35078  -0.34447  -0.32116  -0.30328  -0.29420
 Alpha  occ. eigenvalues --   -0.27664  -0.26075  -0.24919  -0.24708  -0.22529
 Alpha  occ. eigenvalues --   -0.18529
 Alpha virt. eigenvalues --   -0.10692  -0.09085  -0.04589  -0.02692  -0.01661
 Alpha virt. eigenvalues --    0.01259   0.04662   0.05220   0.07769   0.08268
 Alpha virt. eigenvalues --    0.10687   0.11502   0.12515   0.13477   0.14117

 Mulliken charges:
               1
     1  N   -0.570532
     2  C    0.187213
     3  C   -0.156855
     4  C   -0.059771
     5  C   -0.067924
     6  N   -0.197871
     7  C    0.220931
     8  C   -0.089430
     9  N   -0.116727
    10  C   -0.032090
    11  C   -0.098744
    12  C   -0.067091
    13  C   -0.194575
    14  C    0.391476
    15  O   -0.368417
    16  N   -0.227810
    17  C   -0.075824
    18  C    0.217510
    19  C   -0.356871
    20  H    0.249813
    21  H    0.270793
    22  H    0.080288
    23  H    0.095476
    24  H    0.106372
    25  H    0.094852
    26  H    0.110009
    27  H    0.135235
    28  H    0.128039
    29  H    0.127295
    30  H    0.128109
    31  H    0.137120
 Sum of Mulliken charges =  -0.00000

 Dipole moment (field-independent basis, Debye):
    X=             -0.0846    Y=             -0.8981    Z=              0.9497  Tot=              1.3098
 Quadrupole moment (field-independent basis, Debye-Ang):
   XX=           -101.3317   YY=           -119.5614   ZZ=           -104.7523
   XY=              7.8432   XZ=             -5.5823   YZ=             -3.4227

  Exact polarizability: 232.685   1.042 229.992  -9.908  -7.074 149.164
 Approx polarizability: 413.466 -26.115 542.083 -16.065 -38.660 315.193

                      1                      2                      3
                      A                      A                      A
 Frequencies --     45.0004                77.1962               121.2421
 Red. masses --      6.9593                 5.1964                 7.9139
 Frc consts  --      0.0083                 0.0182                 0.0685
 IR Inten    --      2.7080                 0.5024                 6.4336

                      4                      5                      6
                      A                      A                      A
 Frequencies --    124.8251               136.2431               155.5900
 Red. masses --      6.2010                 7.8438                 5.0687
 Frc consts  --      0.0569                 0.0858                 0.0723
 IR Inten    --      1.5029                 1.7258                 1.0470

                      7                      8                      9
                      A                      A                      A
 Frequencies --    189.2719               204.3511               253.6658
 Red. masses --      5.1118                 4.3642                 2.7331
 Frc consts  --      0.1079                 0.1074                 0.1036
 IR Inten    --      1.6424                 3.3868                 8.8229

                     10                     11                     12
                      A                      A                      A
 Frequencies --    263.0628               283.2002               290.7143
 Red. masses --      3.1970                 6.7975                 3.6213
 Frc consts  --      0.1303                 0.3212                 0.1803
 IR Inten    --      1.4311                 6.7273                 4.3508

                     13                     14                     15
                      A                      A                      A
 Frequencies --    299.6437               316.3235               327.9011
 Red. masses --      3.6193                 3.6243                 1.5650
 Frc consts  --      0.1915                 0.2137                 0.0991
 IR Inten    --      9.6086                 3.8582                21.8263

                     16                     17                     18
                      A                      A                      A
 Frequencies --    344.0444               374.1820               389.3596
 Red. masses --      2.2272                 3.2011                 4.0303
 Frc consts  --      0.1553                 0.2641                 0.3600
 IR Inten    --     16.2154                28.0520                 7.5920

                     19                     20                     21
                      A                      A                      A
 Frequencies --    448.7488               479.7010               497.5896
 Red. masses --      6.5192                 3.9313                 4.6621
 Frc consts  --      0.7735                 0.5330                 0.6801
 IR Inten    --      0.5399                 9.5719                 7.9617

                     22                     23                     24
                      A                      A                      A
 Frequencies --    520.3368               522.1313               544.7606
 Red. masses --      4.5671                 4.2903                 4.4623
 Frc consts  --      0.7285                 0.6891                 0.7802
 IR Inten    --      9.6480                23.8194                21.8972

                     25                     26                     27
                      A                      A                      A
 Frequencies --    584.1941               631.2367               642.9158
 Red. masses --      4.8401                 6.3222                 5.1280
 Frc consts  --      0.9732                 1.4842                 1.2488
 IR Inten    --     24.4221                48.9301                26.7535

                     28                     29                     30
                      A                      A                      A
 Frequencies --    648.9953               679.3765               704.7647
 Red. masses --      5.0195                 5.4367                 2.6882
 Frc consts  --      1.2456                 1.4785                 0.7867
 IR Inten    --     13.7489                 8.7663               239.3056

                     31                     32                     33
                      A                      A                      A
 Frequencies --    722.5520               750.3148               774.6904
 Red. masses --      2.1342                 4.4053                 2.3778
 Frc consts  --      0.6565                 1.4612                 0.8408
 IR Inten    --     96.2160                 4.3170                25.2951

                     34                     35                     36
                      A                      A                      A
 Frequencies --    797.7648               815.7669               833.2098
 Red. masses --      1.8494                 2.9171                 2.7099
 Frc consts  --      0.6935                 1.1438                 1.1084
 IR Inten    --    164.6792                27.4172                14.1708

                     37                     38                     39
                      A                      A                      A
 Frequencies --    855.8157               881.2210               881.4554
 Red. masses --      1.8519                 3.6172                 4.0153
 Frc consts  --      0.7992                 1.6550                 1.8381
 IR Inten    --     83.9948                84.8450                 3.5828

                     40                     41                     42
                      A                      A                      A
 Frequencies --    905.6417               926.9602               948.2878
 Red. masses --      1.4215                 1.4252                 1.8323
 Frc consts  --      0.6869                 0.7215                 0.9708
 IR Inten    --     44.6563                16.0029                38.3802

                     43                     44                     45
                      A                      A                      A
 Frequencies --    960.2966               963.3963               976.1187
 Red. masses --      1.9869                 1.3419                 1.5042
 Frc consts  --      1.0796                 0.7338                 0.8444
 IR Inten    --      4.8083                14.0686                15.8475

                     46                     47                     48
                      A                      A                      A
 Frequencies --    992.5179              1035.3476              1085.5804
 Red. masses --      1.4260                 1.2506                 3.3820
 Frc consts  --      0.8277                 0.7899                 2.3483
 IR Inten    --     35.6348               136.1478                17.3491

                     49                     50                     51
                      A                      A                      A
 Frequencies --   1104.9560              1145.2304              1169.1083
 Red. masses --      3.6352                 3.2926                 3.2572
 Frc consts  --      2.6150                 2.5444                 2.6230
 IR Inten    --      6.7697                31.1289                16.6471

                     52                     53                     54
                      A                      A                      A
 Frequencies --   1178.5414              1187.4121              1224.3448
 Red. masses --      3.1971                 1.9791                 1.3112
 Frc consts  --      2.6163                 1.6440                 1.1581
 IR Inten    --     37.6576                24.8054                 8.7216

                     55                     56                     57
                      A                      A                      A
 Frequencies --   1243.7588              1297.5791              1306.3410
 Red. masses --      3.0056                 1.3200                 1.7771
 Frc consts  --      2.7394                 1.3094                 1.7868
 IR Inten    --      2.0255                 0.6406                 8.6102

                     58                     59                     60
                      A                      A                      A
 Frequencies --   1317.2126              1343.0714              1349.4258
 Red. masses --      2.5044                 1.3394                 1.3301
 Frc consts  --      2.5602                 1.4235                 1.4270
 IR Inten    --     64.0757                 3.2473                 6.5962

                     61                     62                     63
                      A                      A                      A
 Frequencies --   1379.1499              1394.1770              1427.4402
 Red. masses --      1.3173                 1.7154                 1.3008
 Frc consts  --      1.4762                 1.9646                 1.5616
 IR Inten    --      5.5379                 5.3711                 0.4088

                     64                     65                     66
                      A                      A                      A
 Frequencies --   1438.5994              1455.4146              1479.3389
 Red. masses --      1.5933                 2.3365                 2.1617
 Frc consts  --      1.9428                 2.9161                 2.7873
 IR Inten    --     11.5368                21.2741                 5.8889

                     67                     68                     69
                      A                      A                      A
 Frequencies --   1493.1650              1539.5396              1571.4377
 Red. masses --      3.9948                 4.7464                 4.6887
 Frc consts  --      5.2476                 6.6282                 6.8218
 IR Inten    --     39.0954                42.2158                35.9363

                     70                     71                     72
                      A                      A                      A
 Frequencies --   1590.5710              1600.9890              1638.7906
 Red. masses --      4.6308                 3.6755                 7.0121
 Frc consts  --      6.9026                 5.5506                11.0955
 IR Inten    --     31.8387                72.5428                21.5271

                     73                     74                     75
                      A                      A                      A
 Frequencies --   1671.9000              1703.2470              1737.8217
 Red. masses --      1.1733                 9.8599                10.9572
 Frc consts  --      1.9324                16.8530                19.4966
 IR Inten    --     46.5104                80.6919               416.4908

                     76                     77                     78
                      A                      A                      A
 Frequencies --   3023.1711              3062.8007              3068.0175
 Red. masses --      1.0841                 1.0866                 1.0856
 Frc consts  --      5.8375                 6.0056                 6.0205
 IR Inten    --     29.9301                35.6036                34.7484

                     79                     80                     81
                      A                      A                      A
 Frequencies --   3107.7727              3132.1041              3155.3163
 Red. masses --      1.0833                 1.0841                 1.0890
 Frc consts  --      6.1645                 6.2659                 6.3879
 IR Inten    --     23.2052                 9.2650                45.9020

                     82                     83                     84
                      A                      A                      A
 Frequencies --   3169.7701              3173.0175              3174.2605
 Red. masses --      1.0903                 1.0860                 1.0872
 Frc consts  --      6.4540                 6.4421                 6.4540
 IR Inten    --      3.7497                 2.5727                 0.9455

                     85                     86                     87
                      A                      A                      A
 Frequencies --   3182.5542              3519.2267              3617.4060
 Red. masses --      1.0873                 1.0504                 1.0935
 Frc consts  --      6.4884                 7.6645                 8.4306
 IR Inten    --      3.6384                40.4417                24.8306

 - Thermochemistry -
 -------------------
 Temperature   298.150 Kelvin.  Pressure   1.00000 Atm.
 Atom     1 has atomic number  7 and mass  14.00307

 Molecular mass:   252.10111 amu.
 Principal axes and moments of inertia in atomic units:
                           1         2         3
     Eigenvalues --  3747.698834130.328286446.40899
           X            0.99412   0.10717  -0.01557
           Y           -0.10720   0.99424  -0.00112
           Z            0.01536   0.00278   0.99988
 This molecule is an asymmetric top.
 Rotational symmetry number  1.
 Warning -- assumption of classical behavior for rotation
           may cause significant error
 Rotational temperatures (Kelvin)      0.02311     0.02097     0.01344
 Rotational constants (GHZ):           0.48156     0.43695     0.27996
 Zero-point vibrational energy     619554.9 (Joules/Mol)
                                  148.07717 (Kcal/Mol)
 Warning -- explicit consideration of  25 degrees of freedom as
           vibrations may cause significant error
 Vibrational temperatures:     64.75   111.07   174.44   179.60   196.02
          (Kelvin)            223.86   272.32   294.02   364.97   378.49
                              407.46   418.27   431.12   455.12   471.78
                              495.00   538.36   560.20   645.65   690.18
                              715.92   748.65   751.23   783.79   840.53
                              908.21   925.01   933.76   977.47  1014.00
                             1039.59  1079.54  1114.61  1147.81  1173.71
                             1198.80  1231.33  1267.88  1268.22  1303.02
                             1333.69  1364.37  1381.65  1386.11  1404.42
                             1428.01  1489.63  1561.91  1589.79  1647.73
                             1682.09  1695.66  1708.42  1761.56  1789.49
                             1866.93  1879.53  1895.18  1932.38  1941.52
                             1984.29  2005.91  2053.77  2069.82  2094.02
                             2128.44  2148.33  2215.05  2260.95  2288.48
                             2303.47  2357.85  2405.49  2450.59  2500.34
                             4349.67  4406.69  4414.19  4471.39  4506.40
                             4539.80  4560.59  4565.26  4567.05  4578.99
                             5063.38  5204.64

 Zero-point correction=                           0.235976 (Hartree/Particle)
 Thermal correction to Energy=                    0.251764
 Thermal correction to Enthalpy=                  0.252709
 Thermal correction to Gibbs Free Energy=         0.194030
 Sum of electronic and zero-point Energies=           -834.495446
 Sum of electronic and thermal Energies=              -834.479657
 Sum of electronic and thermal Enthalpies=            -834.478713
 Sum of electronic and thermal Free Energies=         -834.537392

                     E (Thermal)             CV                S
                      KCal/Mol        Cal/Mol-Kelvin    Cal/Mol-Kelvin
 Total                  157.985             63.407            123.499
 Electronic               0.000              0.000              0.000
 Translational            0.889              2.981             42.474
 Rotational               0.889              2.981             32.967
 Vibrational            156.207             57.445             48.058
 Vibration     1          0.595              1.979              5.026
 Vibration     2          0.599              1.964              3.961
 Vibration     3          0.609              1.931              3.080
 Vibration     4          0.610              1.928              3.024
 Vibration     5          0.614              1.917              2.856
 Vibration     6          0.620              1.896              2.603
 Vibration     7          0.633              1.855              2.235
 Vibration     8          0.640              1.834              2.094
 Vibration     9          0.665              1.757              1.705
 Vibration    10          0.670              1.741              1.641
 Vibration    11          0.682              1.705              1.514
 Vibration    12          0.687              1.691              1.470
 Vibration    13          0.692              1.674              1.419
 Vibration    14          0.703              1.642              1.329
 Vibration    15          0.711              1.620              1.270
 Vibration    16          0.723              1.587              1.193
 Vibration    17          0.745              1.525              1.063
 Vibration    18          0.757              1.493              1.003
 Vibration    19          0.808              1.364              0.800
 Vibration    20          0.836              1.295              0.711
 Vibration    21          0.853              1.255              0.664
 Vibration    22          0.875              1.205              0.609
 Vibration    23          0.877              1.201              0.605
 Vibration    24          0.900              1.151              0.555
 Vibration    25          0.941              1.066              0.478

                           ! Non-Optimized Parameters !
 Normal termination of Gaussian 16 at Thu May 18 15:02:19 2023.
