 Gaussian 16, Revision A.03,
 Gaussian 16:  ES64L-G16RevA.03 25-Dec-2016

 -----------------------------
 # opt freq b3lyp/6-31g(2df,p)
 -----------------------------

 -------------------
 Title Card Required
 -------------------
 Symbolic Z-matrix:
 Charge =  0 Multiplicity = 1

 SCF Done:  E(RB3LYP) =  -665.253449061     A.U. after   26 cycles
 SCF Done:  E(RB3LYP) =  -665.351855304     A.U. after   20 cycles
 SCF Done:  E(RB3LYP) =  -665.501778962     A.U. after   18 cycles
 SCF Done:  E(RB3LYP) =  -665.600511265     A.U. after   18 cycles
 SCF Done:  E(RB3LYP) =  -665.725570358     A.U. after   18 cycles
 SCF Done:  E(RB3LYP) =  -665.865807832     A.U. after   17 cycles
 SCF Done:  E(RB3LYP) =  -665.937872242     A.U. after   16 cycles
 SCF Done:  E(RB3LYP) =  -665.960395521     A.U. after   14 cycles
 SCF Done:  E(RB3LYP) =  -665.997739678     A.U. after   15 cycles
 SCF Done:  E(RB3LYP) =  -666.120440109     A.U. after   16 cycles
 SCF Done:  E(RB3LYP) =  -666.270164624     A.U. after   11 cycles
 SCF Done:  E(RB3LYP) =  -666.270167757     A.U. after   10 cycles
 SCF Done:  E(RB3LYP) =  -666.270168429     A.U. after    9 cycles
 SCF Done:  E(RB3LYP) =  -666.270168686     A.U. after    9 cycles
 SCF Done:  E(RB3LYP) =  -666.270169421     A.U. after   10 cycles
 SCF Done:  E(RB3LYP) =  -666.270169737     A.U. after   10 cycles
 SCF Done:  E(RB3LYP) =  -666.270170064     A.U. after   10 cycles
 SCF Done:  E(RB3LYP) =  -666.270170389     A.U. after   10 cycles
 SCF Done:  E(RB3LYP) =  -666.270170547     A.U. after    8 cycles
 Optimization completed.
    -- Stationary point found.
 Normal termination of Gaussian 16 at Thu May 18 07:52:26 2023.

 ----------------------------------------------------------------------
 #N Geom=AllCheck Guess=TCheck SCRF=Check GenChk RB3LYP/6-31G(2df,p) Fr
 eq
 ----------------------------------------------------------------------

 Structure from the checkpoint file:  "NC1dCCdCCdCdCCNqCNdOrCdC1.chk"
 -------------------
 Title Card Required
 -------------------
 Charge =  0 Multiplicity = 1

                         Standard orientation:
 ---------------------------------------------------------------------
 Center     Atomic      Atomic             Coordinates (Angstroms)
 Number     Number       Type             X           Y           Z
 ---------------------------------------------------------------------
      1          7           0       -3.030055    2.400614   -0.463039
      2          6           0       -2.818209    1.107483   -0.001731
      3          6           0       -3.761708    0.120630   -0.016926
      4          6           0       -3.329501   -1.258003    0.224800
      5          6           0       -2.208288   -1.669711   -0.409993
      6          6           0       -1.105952   -2.487657    0.119759
      7          6           0        0.077619   -1.963751   -0.128535
      8          6           0        1.003654   -1.071046   -0.367447
      9          6           0        0.984895    0.296004    0.387234
     10          7           0        2.157232    1.142084    0.204681
     11          6           0        3.424597    0.680408    0.684088
     12          7           0        4.084084   -0.270544   -0.295603
     13          8           0        5.245325   -0.015032   -0.486580
     14          6           0       -0.272266    1.017105   -0.077480
     15          6           0       -1.453043    0.810221    0.510887
     16          1           0       -2.562754    3.127528    0.060337
     17          1           0       -3.988494    2.631527   -0.686045
     18          1           0       -4.803065    0.373829   -0.208968
     19          1           0       -3.774832   -1.837177    1.034277
     20          1           0       -1.901523   -1.064883   -1.256332
     21          1           0       -1.270866   -3.279682    0.845638
     22          1           0        1.750163   -1.188270   -1.149148
     23          1           0        0.897849    0.093844    1.460511
     24          1           0        2.221896    1.511067   -0.737379
     25          1           0        3.284335    0.104746    1.607058
     26          1           0        4.126009    1.503664    0.866755
     27          1           0       -0.212044    1.527064   -1.038159
     28          1           0       -1.458896    0.221825    1.423887
 ---------------------------------------------------------------------

 SCF Done:  E(RB3LYP) =  -666.270170547     A.U. after    1 cycles

 The electronic state is 1-A.
 Alpha  occ. eigenvalues --  -19.20027 -14.43857 -14.34136 -14.34023 -10.24253
 Alpha  occ. eigenvalues --  -10.23679 -10.22524 -10.19659 -10.19068 -10.19047
 Alpha  occ. eigenvalues --  -10.18887 -10.18737 -10.17898 -10.17500 -10.16578
 Alpha  occ. eigenvalues --   -1.15640  -0.93456  -0.91746  -0.82805  -0.79698
 Alpha  occ. eigenvalues --   -0.78386  -0.75052  -0.71911  -0.69218  -0.63964
 Alpha  occ. eigenvalues --   -0.61521  -0.60091  -0.56639  -0.54150  -0.51991
 Alpha  occ. eigenvalues --   -0.51339  -0.50997  -0.49272  -0.48622  -0.47066
 Alpha  occ. eigenvalues --   -0.45646  -0.45253  -0.44463  -0.43219  -0.41169
 Alpha  occ. eigenvalues --   -0.40598  -0.39796  -0.38771  -0.37313  -0.35976
 Alpha  occ. eigenvalues --   -0.35011  -0.33482  -0.30350  -0.27233  -0.26622
 Alpha  occ. eigenvalues --   -0.24270  -0.22897  -0.21117  -0.18219
 Alpha virt. eigenvalues --   -0.08272  -0.02725  -0.01157   0.01667   0.05998
 Alpha virt. eigenvalues --    0.07527   0.08920   0.09664   0.10174   0.12569
 Alpha virt. eigenvalues --    0.13497   0.14312   0.14652   0.15147   0.15874

 Mulliken charges:
               1
     1  N   -0.564795
     2  C    0.294512
     3  C   -0.203842
     4  C   -0.156949
     5  C   -0.041057
     6  C   -0.278519
     7  C    0.281640
     8  C   -0.292396
     9  C   -0.041391
    10  N   -0.284478
    11  C   -0.096227
    12  N    0.039173
    13  O   -0.208131
    14  C   -0.076977
    15  C   -0.132677
    16  H    0.246942
    17  H    0.245907
    18  H    0.068622
    19  H    0.081480
    20  H    0.103534
    21  H    0.112543
    22  H    0.124641
    23  H    0.100784
    24  H    0.229034
    25  H    0.133891
    26  H    0.115104
    27  H    0.090856
    28  H    0.108774
 Sum of Mulliken charges =  -0.00000

 Dipole moment (field-independent basis, Debye):
    X=             -1.8861    Y=              2.5760    Z=              1.3956  Tot=              3.4844
 Quadrupole moment (field-independent basis, Debye-Ang):
   XX=            -94.1518   YY=            -82.6374   ZZ=            -85.8146
   XY=             -3.3647   XZ=              1.9817   YZ=             -4.1676

  Exact polarizability: 221.603   3.064 146.309 -12.279  -7.113  90.000
 Approx polarizability: 341.090  17.462 247.863 -37.647 -13.498 155.172

                      1                      2                      3
                      A                      A                      A
 Frequencies --     26.7569                63.8228                76.7217
 Red. masses --      7.1495                 6.5627                 3.6986
 Frc consts  --      0.0030                 0.0158                 0.0128
 IR Inten    --      1.0811                 0.3002                 1.2929

                      4                      5                      6
                      A                      A                      A
 Frequencies --     78.9745               127.2649               152.5952
 Red. masses --      8.5228                 4.0865                 3.7611
 Frc consts  --      0.0313                 0.0390                 0.0516
 IR Inten    --      0.2645                 2.6456                 2.9049

                      7                      8                      9
                      A                      A                      A
 Frequencies --    194.9604               199.2226               224.1248
 Red. masses --      3.8018                 3.5738                 3.8568
 Frc consts  --      0.0851                 0.0836                 0.1141
 IR Inten    --      0.9909                 3.0317                 0.6955

                     10                     11                     12
                      A                      A                      A
 Frequencies --    241.7153               280.8376               308.3961
 Red. masses --      2.9751                 2.2409                 2.7014
 Frc consts  --      0.1024                 0.1041                 0.1514
 IR Inten    --      2.0918                 2.4337                 3.2225

                     13                     14                     15
                      A                      A                      A
 Frequencies --    332.0751               364.0155               396.6850
 Red. masses --      2.8556                 2.7370                 3.0035
 Frc consts  --      0.1855                 0.2137                 0.2785
 IR Inten    --      5.8465                18.4623                 0.7475

                     16                     17                     18
                      A                      A                      A
 Frequencies --    426.7966               436.4851               473.6127
 Red. masses --      1.5556                 3.8762                 2.8661
 Frc consts  --      0.1670                 0.4351                 0.3788
 IR Inten    --     21.5499                 8.9014                12.2075

                     19                     20                     21
                      A                      A                      A
 Frequencies --    488.7169               546.1672               556.5695
 Red. masses --      2.7482                 3.3878                 3.8186
 Frc consts  --      0.3867                 0.5954                 0.6969
 IR Inten    --      0.5731                 3.9754                18.9058

                     22                     23                     24
                      A                      A                      A
 Frequencies --    579.4924               592.8570               607.4154
 Red. masses --      2.5000                 3.9655                 2.0109
 Frc consts  --      0.4946                 0.8212                 0.4371
 IR Inten    --     57.4460                18.0151                86.1762

                     25                     26                     27
                      A                      A                      A
 Frequencies --    632.0054               661.1459               684.6668
 Red. masses --      1.9190                 2.1423                 3.0231
 Frc consts  --      0.4516                 0.5517                 0.8349
 IR Inten    --    122.3850                14.4469                50.1192

                     28                     29                     30
                      A                      A                      A
 Frequencies --    771.9959               785.3875               808.7635
 Red. masses --      1.7238                 3.3940                 1.7024
 Frc consts  --      0.6053                 1.2335                 0.6561
 IR Inten    --     28.4313                13.6363                28.2413

                     31                     32                     33
                      A                      A                      A
 Frequencies --    825.7504               858.6081               890.2078
 Red. masses --      2.0002                 2.1407                 1.5411
 Frc consts  --      0.8036                 0.9298                 0.7196
 IR Inten    --     72.0439                53.8256                13.3533

                     34                     35                     36
                      A                      A                      A
 Frequencies --    892.8325               958.4901              1008.4860
 Red. masses --      2.6071                 4.7715                 1.6171
 Frc consts  --      1.2244                 2.5827                 0.9690
 IR Inten    --      5.2264                31.1681                28.4652

                     37                     38                     39
                      A                      A                      A
 Frequencies --   1012.0757              1020.6907              1052.3128
 Red. masses --      1.1961                 1.5612                 2.1721
 Frc consts  --      0.7218                 0.9583                 1.4171
 IR Inten    --     23.9803                 7.1757                13.3243

                     40                     41                     42
                      A                      A                      A
 Frequencies --   1068.1993              1094.6383              1104.7204
 Red. masses --      2.6974                 2.9305                 2.0349
 Frc consts  --      1.8134                 2.0689                 1.4632
 IR Inten    --     11.4438                 6.7249                 4.9389

                     43                     44                     45
                      A                      A                      A
 Frequencies --   1108.1857              1138.9581              1195.3984
 Red. masses --      2.0092                 1.3658                 2.7133
 Frc consts  --      1.4538                 1.0439                 2.2844
 IR Inten    --      4.2187                 4.8819               117.6136

                     46                     47                     48
                      A                      A                      A
 Frequencies --   1207.3003              1221.9244              1245.6502
 Red. masses --      1.3140                 1.2668                 1.3374
 Frc consts  --      1.1284                 1.1144                 1.2226
 IR Inten    --      8.8338                14.2783                 1.9548

                     49                     50                     51
                      A                      A                      A
 Frequencies --   1282.3079              1295.0279              1301.3833
 Red. masses --      1.9361                 1.4465                 1.3593
 Frc consts  --      1.8757                 1.4293                 1.3563
 IR Inten    --     37.9883                 4.9491                 0.1956

                     52                     53                     54
                      A                      A                      A
 Frequencies --   1325.2806              1340.5627              1352.8162
 Red. masses --      1.2144                 1.3570                 1.3053
 Frc consts  --      1.2566                 1.4368                 1.4074
 IR Inten    --     21.8508                 1.0682                 7.5934

                     55                     56                     57
                      A                      A                      A
 Frequencies --   1365.6177              1398.9155              1407.0685
 Red. masses --      1.2448                 2.4861                 2.0152
 Frc consts  --      1.3678                 2.8665                 2.3507
 IR Inten    --      7.3721                31.0198                15.4780

                     58                     59                     60
                      A                      A                      A
 Frequencies --   1449.9262              1505.7888              1588.8232
 Red. masses --      1.1008                 1.2628                 3.8073
 Frc consts  --      1.3634                 1.6870                 5.6626
 IR Inten    --      4.6202                36.0937                61.0095

                     61                     62                     63
                      A                      A                      A
 Frequencies --   1629.2668              1646.0031              1661.3736
 Red. masses --      3.2421                 1.6072                13.1206
 Frc consts  --      5.0707                 2.5655                21.3373
 IR Inten    --      3.0343               148.6984               165.2713

                     64                     65                     66
                      A                      A                      A
 Frequencies --   1703.4899              1978.3218              3017.9129
 Red. masses --      5.6000                10.4476                 1.0550
 Frc consts  --      9.5746                24.0914                 5.6612
 IR Inten    --      3.4013                22.4092                31.1151

                     67                     68                     69
                      A                      A                      A
 Frequencies --   3042.8605              3084.4194              3111.7395
 Red. masses --      1.0844                 1.1085                 1.0866
 Frc consts  --      5.9154                 6.2136                 6.1988
 IR Inten    --     13.5747                12.8009                36.0273

                     70                     71                     72
                      A                      A                      A
 Frequencies --   3129.6187              3137.3551              3151.5511
 Red. masses --      1.0886                 1.0893                 1.0894
 Frc consts  --      6.2823                 6.3173                 6.3752
 IR Inten    --     52.3232                 8.7900                 6.3411

                     73                     74                     75
                      A                      A                      A
 Frequencies --   3155.4416              3164.8467              3181.3610
 Red. masses --      1.0897                 1.0863                 1.0861
 Frc consts  --      6.3924                 6.4108                 6.4764
 IR Inten    --      9.8964                 5.1534                10.0679

                     76                     77                     78
                      A                      A                      A
 Frequencies --   3541.8524              3543.8364              3653.0848
 Red. masses --      1.0740                 1.0461                 1.0989
 Frc consts  --      7.9380                 7.7403                 8.6400
 IR Inten    --      2.1848                13.0038                 8.7875

 - Thermochemistry -
 -------------------
 Temperature   298.150 Kelvin.  Pressure   1.00000 Atm.
 Atom     1 has atomic number  7 and mass  14.00307

 Molecular mass:   203.10586 amu.
 Principal axes and moments of inertia in atomic units:
                           1         2         3
     Eigenvalues --  1455.117265970.809307153.34306
           X            0.99999   0.00003   0.00345
           Y            0.00002   0.99991  -0.01318
           Z           -0.00345   0.01318   0.99991
 This molecule is an asymmetric top.
 Rotational symmetry number  1.
 Warning -- assumption of classical behavior for rotation
           may cause significant error
 Rotational temperatures (Kelvin)      0.05952     0.01451     0.01211
 Rotational constants (GHZ):           1.24027     0.30226     0.25229
 Zero-point vibrational energy     587202.1 (Joules/Mol)
                                  140.34468 (Kcal/Mol)
 Warning -- explicit consideration of  24 degrees of freedom as
           vibrations may cause significant error
 Vibrational temperatures:     38.50    91.83   110.39   113.63   183.11
          (Kelvin)            219.55   280.50   286.64   322.47   347.77
                              404.06   443.71   477.78   523.74   570.74
                              614.07   628.00   681.42   703.15   785.81
                              800.78   833.76   852.99   873.94   909.31
                              951.24   985.08  1110.73  1130.00  1163.63
                             1188.07  1235.35  1280.81  1284.59  1379.05
                             1450.99  1456.15  1468.55  1514.04  1536.90
                             1574.94  1589.45  1594.43  1638.71  1719.91
                             1737.04  1758.08  1792.21  1844.96  1863.26
                             1872.40  1906.78  1928.77  1946.40  1964.82
                             2012.73  2024.46  2086.12  2166.49  2285.96
                             2344.15  2368.23  2390.35  2450.94  2846.36
                             4342.10  4378.00  4437.79  4477.10  4502.82
                             4513.95  4534.38  4539.98  4553.51  4577.27
                             5095.94  5098.79  5255.97

 Zero-point correction=                           0.223653 (Hartree/Particle)
 Thermal correction to Energy=                    0.238367
 Thermal correction to Enthalpy=                  0.239311
 Thermal correction to Gibbs Free Energy=         0.181514
 Sum of electronic and zero-point Energies=           -666.046517
 Sum of electronic and thermal Energies=              -666.031803
 Sum of electronic and thermal Enthalpies=            -666.030859
 Sum of electronic and thermal Free Energies=         -666.088657

                     E (Thermal)             CV                S
                      KCal/Mol        Cal/Mol-Kelvin    Cal/Mol-Kelvin
 Total                  149.578             56.247            121.645
 Electronic               0.000              0.000              0.000
 Translational            0.889              2.981             41.830
 Rotational               0.889              2.981             32.497
 Vibrational            147.800             50.285             47.318
 Vibration     1          0.593              1.984              6.056
 Vibration     2          0.597              1.972              4.335
 Vibration     3          0.599              1.965              3.973
 Vibration     4          0.600              1.963              3.916
 Vibration     5          0.611              1.926              2.987
 Vibration     6          0.619              1.900              2.640
 Vibration     7          0.636              1.847              2.180
 Vibration     8          0.637              1.841              2.140
 Vibration     9          0.649              1.804              1.926
 Vibration    10          0.658              1.776              1.790
 Vibration    11          0.681              1.709              1.529
 Vibration    12          0.698              1.658              1.371
 Vibration    13          0.714              1.611              1.250
 Vibration    14          0.738              1.546              1.105
 Vibration    15          0.763              1.477              0.975
 Vibration    16          0.788              1.412              0.869
 Vibration    17          0.797              1.391              0.838
 Vibration    18          0.830              1.309              0.727
 Vibration    19          0.845              1.275              0.687
 Vibration    20          0.901              1.148              0.552
 Vibration    21          0.912              1.125              0.531
 Vibration    22          0.936              1.076              0.486
 Vibration    23          0.950              1.047              0.462
 Vibration    24          0.966              1.016              0.437

                           ! Non-Optimized Parameters !
 Normal termination of Gaussian 16 at Thu May 18 09:51:13 2023.
