 Gaussian 16, Revision A.03,
 Gaussian 16:  ES64L-G16RevA.03 25-Dec-2016

 -----------------------------
 # opt freq b3lyp/6-31g(2df,p)
 -----------------------------

 -------------------
 Title Card Required
 -------------------
 Symbolic Z-matrix:
 Charge =  0 Multiplicity = 1

 SCF Done:  E(RB3LYP) =  -1636.90715207     A.U. after   17 cycles
 SCF Done:  E(RB3LYP) =  -1636.92545319     A.U. after   15 cycles
 SCF Done:  E(RB3LYP) =  -1636.93128987     A.U. after   14 cycles
 SCF Done:  E(RB3LYP) =  -1636.93427943     A.U. after   14 cycles
 SCF Done:  E(RB3LYP) =  -1636.93689739     A.U. after   15 cycles
 SCF Done:  E(RB3LYP) =  -1636.93919853     A.U. after   14 cycles
 SCF Done:  E(RB3LYP) =  -1636.94089582     A.U. after   14 cycles
 SCF Done:  E(RB3LYP) =  -1636.94393345     A.U. after   13 cycles
 SCF Done:  E(RB3LYP) =  -1636.94550384     A.U. after   14 cycles
 SCF Done:  E(RB3LYP) =  -1636.94682337     A.U. after   14 cycles
 SCF Done:  E(RB3LYP) =  -1636.96499290     A.U. after   13 cycles
 SCF Done:  E(RB3LYP) =  -1636.96507081     A.U. after   11 cycles
 SCF Done:  E(RB3LYP) =  -1636.96509148     A.U. after   11 cycles
 SCF Done:  E(RB3LYP) =  -1636.96510175     A.U. after   11 cycles
 SCF Done:  E(RB3LYP) =  -1636.96510422     A.U. after   10 cycles
 SCF Done:  E(RB3LYP) =  -1636.96510445     A.U. after    8 cycles
 SCF Done:  E(RB3LYP) =  -1636.96510451     A.U. after    8 cycles
 SCF Done:  E(RB3LYP) =  -1636.96510452     A.U. after    7 cycles
 SCF Done:  E(RB3LYP) =  -1636.96510453     A.U. after    7 cycles
 Optimization completed.
    -- Stationary point found.
 Normal termination of Gaussian 16 at Tue May 16 17:07:06 2023.

 ----------------------------------------------------------------------
 #N Geom=AllCheck Guess=TCheck SCRF=Check GenChk RB3LYP/6-31G(2df,p) Fr
 eq
 ----------------------------------------------------------------------

 Structure from the checkpoint file:  "NC1dCSCqdSrCqCdCCCdSrdCC1.chk"
 -------------------
 Title Card Required
 -------------------
 Charge =  0 Multiplicity = 1

                         Standard orientation:
 ---------------------------------------------------------------------
 Center     Atomic      Atomic             Coordinates (Angstroms)
 Number     Number       Type             X           Y           Z
 ---------------------------------------------------------------------
      1          7           0       -3.084875   -3.075221    0.130304
      2          6           0       -2.820215   -1.736415   -0.067208
      3          6           0       -3.207537   -0.758716    0.778016
      4         16           0       -3.011469    0.960447    0.464517
      5          6           0       -1.383895    1.328624   -0.082848
      6         16           0       -1.067378    2.925017   -0.373141
      7          6           0       -0.378461    0.260036   -0.280934
      8          6           0        1.001648    0.573404    0.144534
      9          6           0        1.832443   -0.305709    0.709240
     10          6           0        3.245915    0.019271    1.125792
     11          6           0        4.242380   -0.834223    0.387160
     12         16           0        5.506634   -0.310488   -0.475918
     13          6           0       -0.665424   -0.914483   -0.881831
     14          6           0       -2.034484   -1.374328   -1.309114
     15          1           0       -3.378940   -3.353863    1.054509
     16          1           0       -2.458570   -3.734249   -0.304425
     17          1           0       -3.736945   -0.969722    1.700976
     18          1           0        1.309433    1.606087    0.010929
     19          1           0        1.499268   -1.325800    0.894107
     20          1           0        3.364313   -0.204510    2.199263
     21          1           0        3.472832    1.076650    0.975335
     22          1           0        4.053702   -1.910030    0.466315
     23          1           0        0.161164   -1.595199   -1.065478
     24          1           0       -1.964419   -2.229892   -1.985911
     25          1           0       -2.566548   -0.577305   -1.841915
 ---------------------------------------------------------------------

 SCF Done:  E(RB3LYP) =  -1636.96510453     A.U. after    1 cycles

 The electronic state is 1-A.
 Alpha  occ. eigenvalues --  -88.90830 -88.86386 -88.83921 -14.36818 -10.27302
 Alpha  occ. eigenvalues --  -10.26187 -10.25590 -10.22100 -10.21850 -10.21629
 Alpha  occ. eigenvalues --  -10.21193 -10.20558 -10.20398 -10.19918  -7.96895
 Alpha  occ. eigenvalues --   -7.92945  -7.90477  -5.93345  -5.92912  -5.92629
 Alpha  occ. eigenvalues --   -5.89305  -5.89191  -5.88427  -5.86839  -5.86622
 Alpha  occ. eigenvalues --   -5.86062  -0.94779  -0.87095  -0.83679  -0.80717
 Alpha  occ. eigenvalues --   -0.80063  -0.76991  -0.72490  -0.69936  -0.67509
 Alpha  occ. eigenvalues --   -0.62292  -0.58589  -0.57437  -0.56562  -0.54306
 Alpha  occ. eigenvalues --   -0.51889  -0.50530  -0.48467  -0.46826  -0.45384
 Alpha  occ. eigenvalues --   -0.44503  -0.42611  -0.41866  -0.39796  -0.39470
 Alpha  occ. eigenvalues --   -0.38379  -0.37793  -0.36298  -0.35721  -0.34385
 Alpha  occ. eigenvalues --   -0.33268  -0.30395  -0.29992  -0.26091  -0.24692
 Alpha  occ. eigenvalues --   -0.22362  -0.21839  -0.20473
 Alpha virt. eigenvalues --   -0.08219  -0.07789  -0.02541   0.00235   0.03480
 Alpha virt. eigenvalues --    0.04427   0.07603   0.08226   0.08524   0.09166
 Alpha virt. eigenvalues --    0.10198   0.10950   0.11928   0.12492   0.13449

 Mulliken charges:
               1
     1  N   -0.557704
     2  C    0.368290
     3  C   -0.238473
     4  S   -0.029892
     5  C    0.124513
     6  S   -0.351085
     7  C    0.232444
     8  C   -0.129401
     9  C   -0.074036
    10  C   -0.277223
    11  C    0.046799
    12  S   -0.229857
    13  C   -0.139894
    14  C   -0.375508
    15  H    0.258077
    16  H    0.257226
    17  H    0.108199
    18  H    0.140314
    19  H    0.086503
    20  H    0.132593
    21  H    0.140599
    22  H    0.130267
    23  H    0.103342
    24  H    0.112037
    25  H    0.161870
 Sum of Mulliken charges =  -0.00000

 Dipole moment (field-independent basis, Debye):
    X=             -2.1011    Y=             -7.0694    Z=              1.7968  Tot=              7.5908
 Quadrupole moment (field-independent basis, Debye-Ang):
   XX=           -120.1006   YY=           -100.0831   ZZ=           -100.2470
   XY=             11.4592   XZ=              3.6076   YZ=             -1.4200

  Exact polarizability: 222.869  18.532 208.895 -14.337  -2.648 117.729
 Approx polarizability: 317.464  54.761 395.439 -34.539  -9.510 215.090

                      1                      2                      3
                      A                      A                      A
 Frequencies --     23.1278                32.1451                52.4566
 Red. masses --      7.3067                 9.3332                 8.9055
 Frc consts  --      0.0023                 0.0057                 0.0144
 IR Inten    --      1.5714                 1.6026                 0.1098

                      4                      5                      6
                      A                      A                      A
 Frequencies --     66.8601                86.5365               127.4648
 Red. masses --      4.2333                 5.2781                 2.8647
 Frc consts  --      0.0111                 0.0233                 0.0274
 IR Inten    --      1.3254                 0.1172                 3.3312

                      7                      8                      9
                      A                      A                      A
 Frequencies --    160.4587               220.8128               225.7213
 Red. masses --      3.7916                 4.7307                 3.4671
 Frc consts  --      0.0575                 0.1359                 0.1041
 IR Inten    --      1.6739                 3.6986                 3.9667

                     10                     11                     12
                      A                      A                      A
 Frequencies --    262.7099               266.9471               285.6848
 Red. masses --      4.5614                 4.0288                 2.4939
 Frc consts  --      0.1855                 0.1692                 0.1199
 IR Inten    --      5.3081                 8.4122                 1.5962

                     13                     14                     15
                      A                      A                      A
 Frequencies --    319.5213               358.1520               364.3910
 Red. masses --      5.1379                 1.2516                 3.6142
 Frc consts  --      0.3091                 0.0946                 0.2827
 IR Inten    --      0.4611                99.1968                 2.0181

                     16                     17                     18
                      A                      A                      A
 Frequencies --    389.9916               407.9170               426.3318
 Red. masses --      3.0188                 4.7089                 3.3205
 Frc consts  --      0.2705                 0.4616                 0.3556
 IR Inten    --     19.6349                 1.3284                 7.7441

                     19                     20                     21
                      A                      A                      A
 Frequencies --    450.3438               510.1146               521.5833
 Red. masses --      5.0786                 3.5747                 1.3919
 Frc consts  --      0.6069                 0.5481                 0.2231
 IR Inten    --      1.1057                26.0914               295.2707

                     22                     23                     24
                      A                      A                      A
 Frequencies --    566.6578               594.5042               654.8179
 Red. masses --      3.6666                 3.4354                 3.7549
 Frc consts  --      0.6937                 0.7154                 0.9486
 IR Inten    --      7.5100                 6.5550                 0.5648

                     25                     26                     27
                      A                      A                      A
 Frequencies --    721.1387               766.4648               768.1689
 Red. masses --      4.6611                 1.5817                 1.6588
 Frc consts  --      1.4282                 0.5475                 0.5767
 IR Inten    --     11.6529                58.7621                 5.1356

                     28                     29                     30
                      A                      A                      A
 Frequencies --    783.8061               835.9187               878.0526
 Red. masses --      3.0801                 1.7760                 3.7421
 Frc consts  --      1.1149                 0.7312                 1.6998
 IR Inten    --      4.8331                 7.9395                28.9244

                     31                     32                     33
                      A                      A                      A
 Frequencies --    886.1876               929.8746               950.3489
 Red. masses --      2.1637                 2.2588                 2.4767
 Frc consts  --      1.0011                 1.1508                 1.3179
 IR Inten    --     24.7856                 5.8465                21.0560

                     34                     35                     36
                      A                      A                      A
 Frequencies --    953.9005               984.0074              1019.5591
 Red. masses --      2.3565                 2.3726                 1.1094
 Frc consts  --      1.2634                 1.3536                 0.6795
 IR Inten    --     25.0711                15.0495                27.4711

                     37                     38                     39
                      A                      A                      A
 Frequencies --   1054.5794              1077.0282              1116.7088
 Red. masses --      2.7417                 3.0722                 2.1082
 Frc consts  --      1.7965                 2.0997                 1.5490
 IR Inten    --     56.7546                26.7922                 8.9350

                     40                     41                     42
                      A                      A                      A
 Frequencies --   1129.0907              1153.8849              1170.2431
 Red. masses --      2.0653                 2.7711                 1.6538
 Frc consts  --      1.5513                 2.1739                 1.3344
 IR Inten    --     58.7744                80.8253                 2.5400

                     43                     44                     45
                      A                      A                      A
 Frequencies --   1176.6644              1228.2536              1256.7252
 Red. masses --      1.2202                 1.9025                 1.4078
 Frc consts  --      0.9953                 1.6911                 1.3100
 IR Inten    --      1.5959                26.8941                 6.4847

                     46                     47                     48
                      A                      A                      A
 Frequencies --   1261.1649              1307.9791              1316.2192
 Red. masses --      1.4073                 1.4037                 1.3566
 Frc consts  --      1.3188                 1.4149                 1.3847
 IR Inten    --     26.0882                 2.5901                12.8916

                     49                     50                     51
                      A                      A                      A
 Frequencies --   1328.6623              1370.4624              1392.0557
 Red. masses --      1.2615                 1.6832                 2.6663
 Frc consts  --      1.3121                 1.8626                 3.0441
 IR Inten    --      0.5859                 7.0068                57.4234

                     52                     53                     54
                      A                      A                      A
 Frequencies --   1400.3157              1456.6604              1481.0904
 Red. masses --      1.6008                 1.0923                 1.0964
 Frc consts  --      1.8494                 1.3655                 1.4171
 IR Inten    --     53.6303                 6.3724                 9.8505

                     55                     56                     57
                      A                      A                      A
 Frequencies --   1638.1093              1646.4760              1668.6446
 Red. masses --      1.8199                 6.9680                 2.1194
 Frc consts  --      2.8772                11.1294                 3.4769
 IR Inten    --     30.2407                 8.8774               245.4680

                     58                     59                     60
                      A                      A                      A
 Frequencies --   1705.2593              2974.0907              3035.5666
 Red. masses --      6.2846                 1.0688                 1.0634
 Frc consts  --     10.7674                 5.5702                 5.7731
 IR Inten    --      4.4172                13.3503                12.3819

                     61                     62                     63
                      A                      A                      A
 Frequencies --   3064.3963              3095.4458              3111.6452
 Red. masses --      1.0854                 1.0992                 1.0906
 Frc consts  --      6.0050                 6.2052                 6.2215
 IR Inten    --     16.2912                17.9525                 2.6800

                     64                     65                     66
                      A                      A                      A
 Frequencies --   3139.1468              3165.7425              3177.8567
 Red. masses --      1.0888                 1.0885                 1.0897
 Frc consts  --      6.3218                 6.4276                 6.4836
 IR Inten    --     14.3470                10.3011                15.6390

                     67                     68                     69
                      A                      A                      A
 Frequencies --   3179.3916              3576.6091              3683.3839
 Red. masses --      1.0878                 1.0467                 1.0996
 Frc consts  --      6.4785                 7.8886                 8.7897
 IR Inten    --      8.7198                36.9631                19.1510

 - Thermochemistry -
 -------------------
 Temperature   298.150 Kelvin.  Pressure   1.00000 Atm.
 Atom     1 has atomic number  7 and mass  14.00307

 Molecular mass:   241.00536 amu.
 Principal axes and moments of inertia in atomic units:
                           1         2         3
     Eigenvalues --  2471.094678245.75143**********
           X            0.99986   0.01527   0.00626
           Y           -0.01529   0.99988   0.00345
           Z           -0.00620  -0.00355   0.99997
 This molecule is an asymmetric top.
 Rotational symmetry number  1.
 Warning -- assumption of classical behavior for rotation
           may cause significant error
 Rotational temperatures (Kelvin)      0.03505     0.01050     0.00866
 Rotational constants (GHZ):           0.73034     0.21887     0.18040
 Zero-point vibrational energy     492815.0 (Joules/Mol)
                                  117.78561 (Kcal/Mol)
 Warning -- explicit consideration of  23 degrees of freedom as
           vibrations may cause significant error
 Vibrational temperatures:     33.28    46.25    75.47    96.20   124.51
          (Kelvin)            183.39   230.86   317.70   324.76   377.98
                              384.08   411.04   459.72   515.30   524.28
                              561.11   586.90   613.40   647.94   733.94
                              750.44   815.29   855.36   942.14  1037.56
                             1102.77  1105.22  1127.72  1202.70  1263.32
                             1275.03  1337.88  1367.34  1372.45  1415.77
                             1466.92  1517.30  1549.60  1606.69  1624.51
                             1660.18  1683.72  1692.96  1767.18  1808.15
                             1814.53  1881.89  1893.75  1911.65  1971.79
                             2002.86  2014.74  2095.81  2130.96  2356.87
                             2368.91  2400.81  2453.49  4279.05  4367.50
                             4408.98  4453.66  4476.96  4516.53  4554.80
                             4572.23  4574.44  5145.94  5299.57

 Zero-point correction=                           0.187703 (Hartree/Particle)
 Thermal correction to Energy=                    0.202620
 Thermal correction to Enthalpy=                  0.203565
 Thermal correction to Gibbs Free Energy=         0.143078
 Sum of electronic and zero-point Energies=          -1636.777401
 Sum of electronic and thermal Energies=             -1636.762484
 Sum of electronic and thermal Enthalpies=           -1636.761540
 Sum of electronic and thermal Free Energies=        -1636.822027

                     E (Thermal)             CV                S
                      KCal/Mol        Cal/Mol-Kelvin    Cal/Mol-Kelvin
 Total                  127.146             54.429            127.306
 Electronic               0.000              0.000              0.000
 Translational            0.889              2.981             42.340
 Rotational               0.889              2.981             33.677
 Vibrational            125.369             48.467             51.289
 Vibration     1          0.593              1.985              6.346
 Vibration     2          0.594              1.983              5.692
 Vibration     3          0.596              1.977              4.723
 Vibration     4          0.598              1.970              4.244
 Vibration     5          0.601              1.959              3.737
 Vibration     6          0.611              1.926              2.984
 Vibration     7          0.622              1.891              2.544
 Vibration     8          0.648              1.809              1.952
 Vibration     9          0.650              1.802              1.913
 Vibration    10          0.670              1.741              1.644
 Vibration    11          0.672              1.734              1.616
 Vibration    12          0.683              1.700              1.499
 Vibration    13          0.705              1.636              1.313
 Vibration    14          0.733              1.558              1.130
 Vibration    15          0.738              1.546              1.103
 Vibration    16          0.758              1.492              1.000
 Vibration    17          0.772              1.453              0.934
 Vibration    18          0.788              1.413              0.871
 Vibration    19          0.809              1.360              0.795
 Vibration    20          0.865              1.228              0.633
 Vibration    21          0.877              1.202              0.606
 Vibration    22          0.923              1.103              0.511
 Vibration    23          0.952              1.043              0.459

 Optimization completed.
    -- Stationary point found.
 Normal termination of Gaussian 16 at Tue May 16 18:37:15 2023.
