 Gaussian 16, Revision A.03,
 Gaussian 16:  ES64L-G16RevA.03 25-Dec-2016

 -----------------------------
 # opt freq b3lyp/6-31g(2df,p)
 -----------------------------

 -------------------
 Title Card Required
 -------------------
 Symbolic Z-matrix:
 Charge =  0 Multiplicity = 1

 SCF Done:  E(RB3LYP) =  -625.653118944     A.U. after   28 cycles
 SCF Done:  E(RB3LYP) =  -625.708454482     A.U. after   16 cycles
 SCF Done:  E(RB3LYP) =  -625.732654494     A.U. after   18 cycles
 SCF Done:  E(RB3LYP) =  -625.776552060     A.U. after   15 cycles
 SCF Done:  E(RB3LYP) =  -625.794032655     A.U. after   16 cycles
 SCF Done:  E(RB3LYP) =  -625.796007337     A.U. after   17 cycles
 SCF Done:  E(RB3LYP) =  -625.802103387     A.U. after   15 cycles
 SCF Done:  E(RB3LYP) =  -625.804048533     A.U. after   16 cycles
 SCF Done:  E(RB3LYP) =  -625.807066709     A.U. after   15 cycles
 SCF Done:  E(RB3LYP) =  -625.811302758     A.U. after   16 cycles
 SCF Done:  E(RB3LYP) =  -625.952977988     A.U. after   14 cycles
 SCF Done:  E(RB3LYP) =  -625.954123850     A.U. after   13 cycles
 SCF Done:  E(RB3LYP) =  -625.954358911     A.U. after   12 cycles
 SCF Done:  E(RB3LYP) =  -625.954417143     A.U. after   12 cycles
 SCF Done:  E(RB3LYP) =  -625.954452515     A.U. after   11 cycles
 SCF Done:  E(RB3LYP) =  -625.954467713     A.U. after   10 cycles
 SCF Done:  E(RB3LYP) =  -625.954473872     A.U. after   10 cycles
 SCF Done:  E(RB3LYP) =  -625.954475166     A.U. after    9 cycles
 SCF Done:  E(RB3LYP) =  -625.954475702     A.U. after    8 cycles
 Optimization completed.
    -- Stationary point found.
 Normal termination of Gaussian 16 at Sat May 20 08:18:40 2023.

 ----------------------------------------------------------------------
 #N Geom=AllCheck Guess=TCheck SCRF=Check GenChk RB3LYP/6-31G(2df,p) Fr
 eq
 ----------------------------------------------------------------------

 Structure from the checkpoint file:  "NC1dCqCdOrN2CdCCdCC2dCCdN1.chk"
 -------------------
 Title Card Required
 -------------------
 Charge =  0 Multiplicity = 1

                         Standard orientation:
 ---------------------------------------------------------------------
 Center     Atomic      Atomic             Coordinates (Angstroms)
 Number     Number       Type             X           Y           Z
 ---------------------------------------------------------------------
      1          7           0        3.073871    0.028624    0.454601
      2          6           0        1.810465    0.456468    0.333899
      3          6           0        0.840229   -0.503464   -0.051760
      4          6           0        1.198577   -1.753186   -0.633094
      5          8           0        2.336754   -2.230265   -0.729735
      6          7           0       -0.576068   -0.288111    0.165203
      7          6           0       -1.273720   -1.330768    0.703285
      8          6           0       -2.638688   -1.419144    0.639762
      9          6           0       -3.336220   -0.387778   -0.018501
     10          6           0       -2.650728    0.707793   -0.475173
     11          6           0       -1.243538    0.826918   -0.317402
     12          6           0       -0.579797    2.041113   -0.541891
     13          6           0        0.638812    2.445818    0.010755
     14          7           0        1.663147    1.795694    0.533355
     15          1           0        3.276365   -0.919842    0.131882
     16          1           0        3.780122    0.740926    0.551165
     17          1           0        0.337357   -2.322706   -1.044239
     18          1           0       -0.657151   -2.094135    1.156780
     19          1           0       -3.142954   -2.272464    1.071665
     20          1           0       -4.412657   -0.445539   -0.138373
     21          1           0       -3.167541    1.538299   -0.940570
     22          1           0       -1.201025    2.830995   -0.948640
     23          1           0        0.774457    3.530519    0.026814
 ---------------------------------------------------------------------

 SCF Done:  E(RB3LYP) =  -625.954475702     A.U. after    1 cycles

 The electronic state is 1-A.
 Alpha  occ. eigenvalues --  -19.10020 -14.42204 -14.34342 -14.30173 -10.26964
 Alpha  occ. eigenvalues --  -10.26099 -10.25287 -10.24187 -10.22867 -10.22388
 Alpha  occ. eigenvalues --  -10.21063 -10.20761 -10.20133 -10.17490  -1.01726
 Alpha  occ. eigenvalues --   -1.00174  -0.95685  -0.88216  -0.84458  -0.81410
 Alpha  occ. eigenvalues --   -0.75514  -0.72714  -0.67847  -0.66619  -0.61815
 Alpha  occ. eigenvalues --   -0.60304  -0.57827  -0.53351  -0.52215  -0.51570
 Alpha  occ. eigenvalues --   -0.48096  -0.47433  -0.46516  -0.46002  -0.44276
 Alpha  occ. eigenvalues --   -0.43801  -0.40951  -0.40230  -0.39903  -0.38157
 Alpha  occ. eigenvalues --   -0.37463  -0.35819  -0.32590  -0.32258  -0.28587
 Alpha  occ. eigenvalues --   -0.25525  -0.23837  -0.21701  -0.18316
 Alpha virt. eigenvalues --   -0.07563  -0.03475  -0.00960   0.05903   0.07226
 Alpha virt. eigenvalues --    0.10050   0.10715   0.11341   0.11662   0.13525
 Alpha virt. eigenvalues --    0.14694   0.15203   0.15949   0.18347   0.18590

 Mulliken charges:
               1
     1  N   -0.508589
     2  C    0.379293
     3  C   -0.035664
     4  C    0.091012
     5  O   -0.383736
     6  N   -0.184847
     7  C    0.023430
     8  C   -0.201970
     9  C   -0.066963
    10  C   -0.185927
    11  C    0.357033
    12  C   -0.233404
    13  C    0.016397
    14  N   -0.393620
    15  H    0.291984
    16  H    0.259592
    17  H    0.070404
    18  H    0.159814
    19  H    0.118911
    20  H    0.121056
    21  H    0.115913
    22  H    0.083998
    23  H    0.105881
 Sum of Mulliken charges =  -0.00000

 Dipole moment (field-independent basis, Debye):
    X=             -4.1113    Y=              0.6458    Z=              0.6518  Tot=              4.2124
 Quadrupole moment (field-independent basis, Debye-Ang):
   XX=            -69.6797   YY=            -81.6871   ZZ=            -82.3729
   XY=              6.1394   XZ=              2.2596   YZ=             -6.4186

  Exact polarizability: 206.385  12.789 155.980   7.350  -7.779  69.350
 Approx polarizability: 371.417  33.847 291.290  19.925 -15.147 123.825

                      1                      2                      3
                      A                      A                      A
 Frequencies --     76.2374                90.1532               136.2108
 Red. masses --      4.4938                 6.0796                 5.7789
 Frc consts  --      0.0154                 0.0291                 0.0632
 IR Inten    --      6.7072                 0.4458                 0.3656

                      4                      5                      6
                      A                      A                      A
 Frequencies --    172.6583               221.8799               307.4003
 Red. masses --      5.2741                 5.5567                 3.6667
 Frc consts  --      0.0926                 0.1612                 0.2041
 IR Inten    --      2.2256                 2.4016                 4.1372

                      7                      8                      9
                      A                      A                      A
 Frequencies --    314.7291               362.3924               385.0840
 Red. masses --      5.0219                 3.5237                 5.8291
 Frc consts  --      0.2931                 0.2727                 0.5093
 IR Inten    --     10.4733                 8.3655                 0.2701

                     10                     11                     12
                      A                      A                      A
 Frequencies --    416.0568               430.0239               452.9920
 Red. masses --      4.9183                 2.9282                 4.6754
 Frc consts  --      0.5016                 0.3190                 0.5653
 IR Inten    --     12.7261                 3.8839                 6.7147

                     13                     14                     15
                      A                      A                      A
 Frequencies --    482.4406               529.0650               546.7619
 Red. masses --      4.2785                 4.4730                 1.4017
 Frc consts  --      0.5867                 0.7377                 0.2469
 IR Inten    --      9.2889                12.7173               144.5940

                     16                     17                     18
                      A                      A                      A
 Frequencies --    561.8512               611.7066               681.2067
 Red. masses --      2.6768                 5.7152                 6.0537
 Frc consts  --      0.4979                 1.2600                 1.6551
 IR Inten    --     19.5993                 8.0629                 8.3129

                     19                     20                     21
                      A                      A                      A
 Frequencies --    730.0464               753.6177               759.1864
 Red. masses --      3.3659                 4.1988                 1.5504
 Frc consts  --      1.0569                 1.4050                 0.5265
 IR Inten    --     14.4150                11.8905                40.8337

                     22                     23                     24
                      A                      A                      A
 Frequencies --    767.9519               777.4850               787.5191
 Red. masses --      2.2304                 1.5631                 1.2579
 Frc consts  --      0.7750                 0.5567                 0.4596
 IR Inten    --      1.6416                75.2985                 5.3816

                     25                     26                     27
                      A                      A                      A
 Frequencies --    813.4493               865.5460               899.5535
 Red. masses --      5.2592                 1.5063                 5.2618
 Frc consts  --      2.0503                 0.6649                 2.5087
 IR Inten    --     30.0733                17.6972                 3.0453

                     28                     29                     30
                      A                      A                      A
 Frequencies --    951.3929               970.1217               983.7086
 Red. masses --      1.3194                 3.4189                 1.5715
 Frc consts  --      0.7036                 1.8958                 0.8960
 IR Inten    --      2.2854                 7.9036                68.0922

                     31                     32                     33
                      A                      A                      A
 Frequencies --    992.8254              1011.5250              1038.3993
 Red. masses --      1.3563                 1.6154                 2.8393
 Frc consts  --      0.7877                 0.9738                 1.8038
 IR Inten    --     21.9875                 2.5716                24.0867

                     34                     35                     36
                      A                      A                      A
 Frequencies --   1065.3887              1140.6649              1166.7732
 Red. masses --      2.2758                 1.8100                 1.9396
 Frc consts  --      1.5219                 1.3875                 1.5557
 IR Inten    --      2.6310                12.5734                 7.5155

                     37                     38                     39
                      A                      A                      A
 Frequencies --   1175.9099              1233.2813              1264.4424
 Red. masses --      1.1307                 2.4165                 3.5231
 Frc consts  --      0.9212                 2.1655                 3.3187
 IR Inten    --     42.5430                74.1425                17.1920

                     40                     41                     42
                      A                      A                      A
 Frequencies --   1273.9956              1288.2553              1351.9562
 Red. masses --      3.5894                 1.7505                 2.2428
 Frc consts  --      3.4325                 1.7116                 2.4153
 IR Inten    --     29.9351                66.1823                12.0207

                     43                     44                     45
                      A                      A                      A
 Frequencies --   1397.2016              1409.3244              1428.4947
 Red. masses --      2.5607                 1.9930                 1.5449
 Frc consts  --      2.9453                 2.3323                 1.8574
 IR Inten    --    378.5348               283.6512                 6.4533

                     46                     47                     48
                      A                      A                      A
 Frequencies --   1434.7686              1445.3702              1501.0296
 Red. masses --      1.8598                 1.9864                 2.0848
 Frc consts  --      2.2557                 2.4450                 2.7676
 IR Inten    --    135.6418                73.3661                 6.5000

                     49                     50                     51
                      A                      A                      A
 Frequencies --   1546.9663              1576.8810              1612.9931
 Red. masses --      3.8903                 4.8713                 4.5133
 Frc consts  --      5.4852                 7.1366                 6.9184
 IR Inten    --    217.4871               255.7108                73.9220

                     52                     53                     54
                      A                      A                      A
 Frequencies --   1629.2308              1661.3639              1691.2291
 Red. masses --      2.1279                 5.4449                 5.5961
 Frc consts  --      3.3278                 8.8545                 9.4306
 IR Inten    --    592.2886               126.2295               264.2532

                     55                     56                     57
                      A                      A                      A
 Frequencies --   2888.6051              3087.9416              3184.0381
 Red. masses --      1.0814                 1.0858                 1.0877
 Frc consts  --      5.3162                 6.1003                 6.4973
 IR Inten    --     71.2358                45.8326                 8.9787

                     58                     59                     60
                      A                      A                      A
 Frequencies --   3189.1246              3208.9761              3224.6389
 Red. masses --      1.0872                 1.0938                 1.0889
 Frc consts  --      6.5150                 6.6362                 6.6712
 IR Inten    --      4.1852                 6.8123                 0.4675

                     61                     62                     63
                      A                      A                      A
 Frequencies --   3240.3583              3364.5309              3666.3391
 Red. masses --      1.0973                 1.0615                 1.0901
 Frc consts  --      6.7883                 7.0799                 8.6331
 IR Inten    --      0.4960               152.7904                93.6058

 - Thermochemistry -
 -------------------
 Temperature   298.150 Kelvin.  Pressure   1.00000 Atm.
 Atom     1 has atomic number  7 and mass  14.00307

 Molecular mass:   187.07456 amu.
 Principal axes and moments of inertia in atomic units:
                           1         2         3
     Eigenvalues --  1561.149012820.479304053.93699
           X            0.99993   0.01111   0.00384
           Y           -0.01104   0.99979  -0.01753
           Z           -0.00404   0.01748   0.99984
 This molecule is an asymmetric top.
 Rotational symmetry number  1.
 Warning -- assumption of classical behavior for rotation
           may cause significant error
 Rotational temperatures (Kelvin)      0.05548     0.03071     0.02137
 Rotational constants (GHZ):           1.15603     0.63987     0.44518
 Zero-point vibrational energy     467926.8 (Joules/Mol)
                                  111.83719 (Kcal/Mol)
 Warning -- explicit consideration of  17 degrees of freedom as
           vibrations may cause significant error
 Vibrational temperatures:    109.69   129.71   195.98   248.42   319.24
          (Kelvin)            442.28   452.82   521.40   554.05   598.61
                              618.71   651.75   694.12   761.21   786.67
                              808.38   880.11   980.10  1050.37  1084.29
                             1092.30  1104.91  1118.63  1133.06  1170.37
                             1245.33  1294.26  1368.84  1395.79  1415.34
                             1428.45  1455.36  1494.03  1532.86  1641.16
                             1678.73  1691.87  1774.42  1819.25  1833.00
                             1853.51  1945.16  2010.26  2027.70  2055.29
                             2064.31  2079.57  2159.65  2225.74  2268.78
                             2320.74  2344.10  2390.33  2433.30  4156.06
                             4442.86  4581.12  4588.44  4617.00  4639.54
                             4662.15  4840.81  5275.04

 Zero-point correction=                           0.178224 (Hartree/Particle)
 Thermal correction to Energy=                    0.188967
 Thermal correction to Enthalpy=                  0.189911
 Thermal correction to Gibbs Free Energy=         0.141810
 Sum of electronic and zero-point Energies=           -625.776252
 Sum of electronic and thermal Energies=              -625.765509
 Sum of electronic and thermal Enthalpies=            -625.764564
 Sum of electronic and thermal Free Energies=         -625.812665

                     E (Thermal)             CV                S
                      KCal/Mol        Cal/Mol-Kelvin    Cal/Mol-Kelvin
 Total                  118.579             43.597            101.237
 Electronic               0.000              0.000              0.000
 Translational            0.889              2.981             41.585
 Rotational               0.889              2.981             31.257
 Vibrational            116.801             37.636             28.395
 Vibration     1          0.599              1.965              3.985
 Vibration     2          0.602              1.956              3.657
 Vibration     3          0.614              1.917              2.856
 Vibration     4          0.626              1.876              2.406
 Vibration     5          0.648              1.808              1.944
 Vibration     6          0.697              1.660              1.376
 Vibration     7          0.702              1.646              1.337
 Vibration     8          0.736              1.550              1.112
 Vibration     9          0.754              1.502              1.019
 Vibration    10          0.779              1.435              0.905
 Vibration    11          0.791              1.405              0.859
 Vibration    12          0.812              1.354              0.787
 Vibration    13          0.839              1.289              0.704
 Vibration    14          0.884              1.186              0.589
 Vibration    15          0.902              1.147              0.551
 Vibration    16          0.918              1.114              0.520
 Vibration    17          0.971              1.007              0.430

                           ! Non-Optimized Parameters !
 Normal termination of Gaussian 16 at Sat May 20 09:41:07 2023.
