 Gaussian 16, Revision A.03,
 Gaussian 16:  ES64L-G16RevA.03 25-Dec-2016

 -----------------------------
 # opt freq b3lyp/6-31g(2df,p)
 -----------------------------

 -------------------
 Title Card Required
 -------------------
 Symbolic Z-matrix:
 Charge =  0 Multiplicity = 1

 SCF Done:  E(RB3LYP) =  -1768.35046625     A.U. after   19 cycles
 SCF Done:  E(RB3LYP) =  -1768.39892823     A.U. after   15 cycles
 SCF Done:  E(RB3LYP) =  -1768.45384955     A.U. after   16 cycles
 SCF Done:  E(RB3LYP) =  -1768.47528015     A.U. after   13 cycles
 SCF Done:  E(RB3LYP) =  -1768.48783908     A.U. after   14 cycles
 SCF Done:  E(RB3LYP) =  -1768.49430933     A.U. after   13 cycles
 SCF Done:  E(RB3LYP) =  -1768.50138926     A.U. after   13 cycles
 SCF Done:  E(RB3LYP) =  -1768.50697547     A.U. after   13 cycles
 SCF Done:  E(RB3LYP) =  -1768.51126884     A.U. after   13 cycles
 SCF Done:  E(RB3LYP) =  -1768.51297856     A.U. after   12 cycles
 SCF Done:  E(RB3LYP) =  -1768.51565142     A.U. after   11 cycles
 SCF Done:  E(RB3LYP) =  -1768.51567902     A.U. after   11 cycles
 SCF Done:  E(RB3LYP) =  -1768.51571248     A.U. after   11 cycles
 SCF Done:  E(RB3LYP) =  -1768.51573806     A.U. after   12 cycles
 SCF Done:  E(RB3LYP) =  -1768.51574055     A.U. after   11 cycles
 SCF Done:  E(RB3LYP) =  -1768.51574807     A.U. after   10 cycles
 SCF Done:  E(RB3LYP) =  -1768.51574989     A.U. after   10 cycles
 SCF Done:  E(RB3LYP) =  -1768.51575002     A.U. after    8 cycles
 SCF Done:  E(RB3LYP) =  -1768.51575004     A.U. after    7 cycles
 Optimization completed.
    -- Stationary point found.

 The electronic state is 1-A.
 Alpha  occ. eigenvalues --  -88.90381 -88.90175 -88.88432 -14.35281 -14.32844
 Alpha  occ. eigenvalues --  -10.25649 -10.25396 -10.24129 -10.23303 -10.21106
 Alpha  occ. eigenvalues --  -10.20462 -10.20242 -10.19466 -10.19366 -10.19096
 Alpha  occ. eigenvalues --  -10.18809 -10.17773  -7.96548  -7.96394  -7.94667
 Alpha  occ. eigenvalues --   -5.93071  -5.92917  -5.92676  -5.92518  -5.92057
 Alpha  occ. eigenvalues --   -5.91878  -5.91168  -5.90805  -5.90189  -0.93248
 Alpha  occ. eigenvalues --   -0.93112  -0.85121  -0.81964  -0.81075  -0.78728
 Alpha  occ. eigenvalues --   -0.76331  -0.74876  -0.70736  -0.69413  -0.65250
 Alpha  occ. eigenvalues --   -0.63784  -0.60387  -0.58525  -0.55089  -0.54028
 Alpha  occ. eigenvalues --   -0.52268  -0.51563  -0.49962  -0.48627  -0.46316
 Alpha  occ. eigenvalues --   -0.45800  -0.44773  -0.43854  -0.42947  -0.41813
 Alpha  occ. eigenvalues --   -0.40632  -0.40389  -0.37927  -0.37107  -0.36611
 Alpha  occ. eigenvalues --   -0.35775  -0.35666  -0.32749  -0.32730  -0.32049
 Alpha  occ. eigenvalues --   -0.29697  -0.28619  -0.26824  -0.25867  -0.24631
 Alpha  occ. eigenvalues --   -0.23687  -0.21444  -0.17940
 Alpha virt. eigenvalues --   -0.07331  -0.06600  -0.03662   0.01117   0.01680
 Alpha virt. eigenvalues --    0.02586   0.04319   0.06756   0.07500   0.07905
 Alpha virt. eigenvalues --    0.09057   0.09347   0.11164   0.11200   0.12131

 Mulliken charges:
               1
     1  N   -0.535932
     2  C    0.244206
     3  C   -0.148439
     4  C   -0.098537
     5  C   -0.064641
     6  C   -0.153239
     7  C    0.128832
     8  C   -0.146894
     9  C   -0.000560
    10  N   -0.237777
    11  C   -0.006922
    12  C   -0.149525
    13  C    0.086341
    14  S   -0.124463
    15  C   -0.229661
    16  S   -0.051662
    17  S   -0.141413
    18  H    0.262710
    19  H    0.250773
    20  H    0.081148
    21  H    0.082921
    22  H    0.103039
    23  H    0.085578
    24  H    0.105575
    25  H    0.107130
    26  H    0.108533
    27  H    0.108220
    28  H    0.170404
    29  H    0.164254
 Sum of Mulliken charges =  -0.00000

 Dipole moment (field-independent basis, Debye):
    X=             -2.8320    Y=              0.7181    Z=              0.0467  Tot=              2.9220
 Quadrupole moment (field-independent basis, Debye-Ang):
   XX=           -111.9640   YY=           -108.6248   ZZ=           -125.9432
   XY=             -7.9042   XZ=             -4.9230   YZ=             -4.8169

 Normal termination of Gaussian 16 at Tue May 16 06:40:31 2023.

 ----------------------------------------------------------------------
 #N Geom=AllCheck Guess=TCheck SCRF=Check GenChk RB3LYP/6-31G(2df,p) Fr
 eq
 ----------------------------------------------------------------------

 Structure from the checkpoint file:  "NC1dCCdCCdC2CdCNdCCdC2SCSS1.chk"
 -------------------
 Title Card Required
 -------------------
 Charge =  0 Multiplicity = 1

                         Standard orientation:
 ---------------------------------------------------------------------
 Center     Atomic      Atomic             Coordinates (Angstroms)
 Number     Number       Type             X           Y           Z
 ---------------------------------------------------------------------
      1          7           0       -4.692393    0.707048   -0.066407
      2          6           0       -3.361777    0.926455    0.264910
      3          6           0       -2.729540    2.102887   -0.014614
      4          6           0       -1.336095    2.460505   -0.081822
      5          6           0       -0.273064    1.631219    0.055207
      6          6           0        1.096922    1.950650   -0.191384
      7          6           0        2.095303    1.028345   -0.294913
      8          6           0        3.487100    1.444282   -0.490274
      9          6           0        4.579431    0.897756    0.084333
     10          7           0        4.656528   -0.098924    1.043041
     11          6           0        3.794005   -1.047118    1.149915
     12          6           0        2.644397   -1.339416    0.307274
     13          6           0        1.868989   -0.436411   -0.337158
     14         16           0        0.531334   -1.032840   -1.399998
     15          6           0       -0.416291   -2.139474   -0.270851
     16         16           0       -2.243697   -1.960902   -0.272796
     17         16           0       -2.640782   -0.449373    1.140824
     18          1           0       -5.216733    0.134242    0.579267
     19          1           0       -5.202603    1.514192   -0.399372
     20          1           0       -3.403757    2.895818   -0.341508
     21          1           0       -1.149004    3.496330   -0.360202
     22          1           0       -0.475426    0.615110    0.344217
     23          1           0        1.368135    2.999668   -0.302844
     24          1           0        3.646387    2.321308   -1.115418
     25          1           0        5.546301    1.346023   -0.132690
     26          1           0        3.994271   -1.780132    1.935982
     27          1           0        2.402110   -2.395476    0.213469
     28          1           0       -0.030513   -2.011188    0.740522
     29          1           0       -0.274056   -3.180997   -0.570091
 ---------------------------------------------------------------------

 SCF Done:  E(RB3LYP) =  -1768.51575004     A.U. after    1 cycles
