 Gaussian 16, Revision A.03,
 Gaussian 16:  ES64L-G16RevA.03 25-Dec-2016

 -----------------------------
 # opt freq b3lyp/6-31g(2df,p)
 -----------------------------

 -------------------
 Title Card Required
 -------------------
 Symbolic Z-matrix:
 Charge =  0 Multiplicity = 1

 SCF Done:  E(RB3LYP) =  -1635.13641973     A.U. after   32 cycles
 SCF Done:  E(RB3LYP) =  -1635.08981156     A.U. after   26 cycles
 SCF Done:  E(RB3LYP) =  -1635.26312978     A.U. after   21 cycles
 SCF Done:  E(RB3LYP) =  -1635.32149085     A.U. after   20 cycles
 SCF Done:  E(RB3LYP) =  -1635.40078143     A.U. after   17 cycles
 SCF Done:  E(RB3LYP) =  -1635.46397040     A.U. after   17 cycles
 SCF Done:  E(RB3LYP) =  -1635.49810133     A.U. after   16 cycles
 SCF Done:  E(RB3LYP) =  -1635.55400198     A.U. after   15 cycles
 SCF Done:  E(RB3LYP) =  -1635.59098597     A.U. after   15 cycles
 SCF Done:  E(RB3LYP) =  -1635.62590389     A.U. after   15 cycles
 SCF Done:  E(RB3LYP) =  -1635.67724768     A.U. after   12 cycles
 SCF Done:  E(RB3LYP) =  -1635.67741629     A.U. after   12 cycles
 SCF Done:  E(RB3LYP) =  -1635.67754496     A.U. after   11 cycles
 SCF Done:  E(RB3LYP) =  -1635.67759380     A.U. after   11 cycles
 SCF Done:  E(RB3LYP) =  -1635.67762227     A.U. after   10 cycles
 SCF Done:  E(RB3LYP) =  -1635.67763517     A.U. after    9 cycles
 SCF Done:  E(RB3LYP) =  -1635.67763966     A.U. after    8 cycles
 SCF Done:  E(RB3LYP) =  -1635.67764087     A.U. after    8 cycles
 SCF Done:  E(RB3LYP) =  -1635.67764119     A.U. after    7 cycles
 Optimization completed.
    -- Stationary point found.
 Normal termination of Gaussian 16 at Fri May 19 09:22:29 2023.

 ----------------------------------------------------------------------
 #N Geom=AllCheck Guess=TCheck SCRF=Check GenChk RB3LYP/6-31G(2df,p) Fr
 eq
 ----------------------------------------------------------------------

 Structure from the checkpoint file:  "NC1dCCdCC2dCqSC1rSSCdCdC2.chk"
 -------------------
 Title Card Required
 -------------------
 Charge =  0 Multiplicity = 1

                         Standard orientation:
 ---------------------------------------------------------------------
 Center     Atomic      Atomic             Coordinates (Angstroms)
 Number     Number       Type             X           Y           Z
 ---------------------------------------------------------------------
      1          7           0        4.611059   -0.741311   -0.544187
      2          6           0        3.465774   -0.233095    0.021751
      3          6           0        3.209685    1.115241    0.097555
      4          6           0        1.882616    1.381374    0.519066
      5          6           0        0.820958    2.091365    0.029243
      6          6           0       -0.421343    1.395238    0.166466
      7          6           0       -0.406790   -0.017287    0.267020
      8         16           0        0.767141   -1.095481   -0.546317
      9          6           0        2.423721   -1.248902    0.413995
     10         16           0       -1.750246   -0.779864    1.163034
     11         16           0       -3.240831   -1.176087   -0.280899
     12          6           0       -3.241254    0.411206   -1.109887
     13          6           0       -2.691111    1.454677   -0.549987
     14          6           0       -1.743102    2.060003    0.138742
     15          1           0        5.189806   -0.106640   -1.073574
     16          1           0        4.570311   -1.672672   -0.926492
     17          1           0        3.832220    1.830318   -0.431550
     18          1           0        1.548789    0.674071    1.266908
     19          1           0        0.900707    2.983443   -0.584662
     20          1           0        2.760733   -2.263016    0.183923
     21          1           0        2.173472   -1.224316    1.474144
     22          1           0       -3.559948    0.361257   -2.145768
     23          1           0       -1.905451    2.970732    0.709498
 ---------------------------------------------------------------------

 SCF Done:  E(RB3LYP) =  -1635.67764119     A.U. after    1 cycles

 The electronic state is 1-A.
 Alpha  occ. eigenvalues --  -88.89215 -88.88435 -88.87161 -14.36673 -10.25403
 Alpha  occ. eigenvalues --  -10.23019 -10.23005 -10.22044 -10.21838 -10.20391
 Alpha  occ. eigenvalues --  -10.20123 -10.19516 -10.18856 -10.18710  -7.95393
 Alpha  occ. eigenvalues --   -7.94547  -7.93242  -5.91909  -5.91496  -5.91096
 Alpha  occ. eigenvalues --   -5.90926  -5.90678  -5.90032  -5.89764  -5.89408
 Alpha  occ. eigenvalues --   -5.88745  -0.94547  -0.86291  -0.82705  -0.79378
 Alpha  occ. eigenvalues --   -0.78039  -0.76092  -0.72121  -0.68743  -0.65099
 Alpha  occ. eigenvalues --   -0.63486  -0.59507  -0.56753  -0.54103  -0.52443
 Alpha  occ. eigenvalues --   -0.51408  -0.49012  -0.47178  -0.46012  -0.44860
 Alpha  occ. eigenvalues --   -0.43046  -0.41415  -0.40251  -0.39851  -0.38298
 Alpha  occ. eigenvalues --   -0.37357  -0.36357  -0.34389  -0.31975  -0.30566
 Alpha  occ. eigenvalues --   -0.29201  -0.27323  -0.25474  -0.23669  -0.22456
 Alpha  occ. eigenvalues --   -0.19897  -0.19457
 Alpha virt. eigenvalues --   -0.07674  -0.03960  -0.01402  -0.00387   0.02501
 Alpha virt. eigenvalues --    0.05169   0.05283   0.06392   0.06755   0.09069
 Alpha virt. eigenvalues --    0.09666   0.10997   0.11904   0.12846   0.14744

 Mulliken charges:
               1
     1  N   -0.554487
     2  C    0.399293
     3  C   -0.256792
     4  C   -0.001485
     5  C   -0.248404
     6  C    0.306941
     7  C   -0.032314
     8  S   -0.150940
     9  C   -0.354076
    10  S   -0.121006
    11  S   -0.045336
    12  C   -0.255657
    13  C    0.225070
    14  C   -0.303676
    15  H    0.259543
    16  H    0.261384
    17  H    0.088111
    18  H    0.118173
    19  H    0.103235
    20  H    0.127846
    21  H    0.169532
    22  H    0.147217
    23  H    0.117830
 Sum of Mulliken charges =  -0.00000

 Dipole moment (field-independent basis, Debye):
    X=              5.2408    Y=              1.0026    Z=             -1.5364  Tot=              5.5526
 Quadrupole moment (field-independent basis, Debye-Ang):
   XX=            -86.9088   YY=            -99.0554   ZZ=           -100.6208
   XY=             -6.5880   XZ=             -2.8147   YZ=             -0.3781

  Exact polarizability: 279.172   1.713 172.020   5.735   1.759 109.807
 Approx polarizability: 471.982   6.608 359.229  27.387  11.852 211.182

                      1                      2                      3
                      A                      A                      A
 Frequencies --     59.1287                68.0170               105.7418
 Red. masses --      7.8568                 6.5448                 7.7641
 Frc consts  --      0.0162                 0.0178                 0.0511
 IR Inten    --      0.5318                 0.8169                 2.8365

                      4                      5                      6
                      A                      A                      A
 Frequencies --    136.0611               180.5805               221.4549
 Red. masses --      4.0205                 6.6019                 5.1808
 Frc consts  --      0.0439                 0.1268                 0.1497
 IR Inten    --      2.4886                 3.4588                13.8766

                      7                      8                      9
                      A                      A                      A
 Frequencies --    230.0368               253.6546               275.6255
 Red. masses --      4.3584                 6.7413                 5.9937
 Frc consts  --      0.1359                 0.2556                 0.2683
 IR Inten    --     42.3580                10.4948                 0.9779

                     10                     11                     12
                      A                      A                      A
 Frequencies --    317.9492               336.7055               347.1473
 Red. masses --      3.3853                 3.9863                 2.5951
 Frc consts  --      0.2016                 0.2663                 0.1843
 IR Inten    --     17.8407                34.0692                29.4415

                     13                     14                     15
                      A                      A                      A
 Frequencies --    377.7497               396.9753               408.5239
 Red. masses --      3.9634                 3.6488                 1.5812
 Frc consts  --      0.3332                 0.3388                 0.1555
 IR Inten    --      3.9757                25.1929                46.9652

                     16                     17                     18
                      A                      A                      A
 Frequencies --    429.8834               465.8366               499.7865
 Red. masses --      7.5017                 4.1990                 1.5137
 Frc consts  --      0.8168                 0.5369                 0.2228
 IR Inten    --      7.1592                71.7299               272.7769

                     19                     20                     21
                      A                      A                      A
 Frequencies --    502.6522               508.5929               534.5620
 Red. masses --      5.1481                 3.5229                 5.9556
 Frc consts  --      0.7664                 0.5369                 1.0027
 IR Inten    --      7.9051                46.7253                30.0229

                     22                     23                     24
                      A                      A                      A
 Frequencies --    553.1189               574.5217               593.7114
 Red. masses --      4.1409                 5.2734                 4.4609
 Frc consts  --      0.7464                 1.0255                 0.9264
 IR Inten    --     28.1962                 8.7656                 3.2671

                     25                     26                     27
                      A                      A                      A
 Frequencies --    681.3240               687.0409               718.6049
 Red. masses --      4.3347                 3.5442                 3.0611
 Frc consts  --      1.1855                 0.9857                 0.9313
 IR Inten    --      6.0073                24.3565                19.0442

                     28                     29                     30
                      A                      A                      A
 Frequencies --    761.7362               806.1615               828.7954
 Red. masses --      2.1407                 1.7207                 3.9795
 Frc consts  --      0.7318                 0.6589                 1.6105
 IR Inten    --     12.0645                 6.8355                 8.6878

                     31                     32                     33
                      A                      A                      A
 Frequencies --    842.5314               854.2274               876.8801
 Red. masses --      2.1630                 2.7919                 1.4082
 Frc consts  --      0.9046                 1.2003                 0.6380
 IR Inten    --      6.9217                36.3553                 8.2978

                     34                     35                     36
                      A                      A                      A
 Frequencies --    887.0182               960.8447              1053.8323
 Red. masses --      2.1761                 4.3185                 1.2721
 Frc consts  --      1.0088                 2.3490                 0.8324
 IR Inten    --      5.0390                 3.6422                48.2885

                     37                     38                     39
                      A                      A                      A
 Frequencies --   1082.4084              1105.2562              1132.6903
 Red. masses --      1.2755                 1.5486                 1.2248
 Frc consts  --      0.8805                 1.1146                 0.9258
 IR Inten    --      7.0542                 0.7502                37.9827

                     40                     41                     42
                      A                      A                      A
 Frequencies --   1164.5107              1198.6558              1207.3564
 Red. masses --      1.5964                 1.2391                 2.0729
 Frc consts  --      1.2755                 1.0489                 1.7803
 IR Inten    --     27.7885                16.0218                 4.2675

                     43                     44                     45
                      A                      A                      A
 Frequencies --   1223.7920              1251.8715              1332.8807
 Red. masses --      1.3097                 1.9865                 6.7137
 Frc consts  --      1.1557                 1.8342                 7.0274
 IR Inten    --      7.0373                 4.7930                63.4614

                     46                     47                     48
                      A                      A                      A
 Frequencies --   1352.3511              1397.1841              1401.1508
 Red. masses --      2.7032                 2.7474                 1.9245
 Frc consts  --      2.9128                 3.1600                 2.2261
 IR Inten    --     44.3978                15.5104               158.9484

                     49                     50                     51
                      A                      A                      A
 Frequencies --   1423.1503              1474.0361              1587.6198
 Red. masses --      1.7731                 1.1613                 3.9796
 Frc consts  --      2.1158                 1.4867                 5.9099
 IR Inten    --     13.9160                17.4968               123.9266

                     52                     53                     54
                      A                      A                      A
 Frequencies --   1619.9293              1659.2346              1950.4206
 Red. masses --      3.6900                 1.2697                10.2167
 Frc consts  --      5.7051                 2.0595                22.8991
 IR Inten    --    308.8958               116.8745                15.4186

                     55                     56                     57
                      A                      A                      A
 Frequencies --   3076.5558              3137.4559              3148.5672
 Red. masses --      1.0630                 1.1025                 1.0892
 Frc consts  --      5.9279                 6.3943                 6.3620
 IR Inten    --     16.7180                 2.7287                14.4957

                     58                     59                     60
                      A                      A                      A
 Frequencies --   3168.1784              3171.5415              3179.6687
 Red. masses --      1.0896                 1.0898                 1.0916
 Frc consts  --      6.4437                 6.4586                 6.5024
 IR Inten    --     14.3855                 6.6154                 1.2788

                     61                     62                     63
                      A                      A                      A
 Frequencies --   3190.4624              3576.4618              3687.7781
 Red. masses --      1.0825                 1.0465                 1.1000
 Frc consts  --      6.4920                 7.8868                 8.8142
 IR Inten    --     13.9173                60.4794                20.4819

 - Thermochemistry -
 -------------------
 Temperature   298.150 Kelvin.  Pressure   1.00000 Atm.
 Atom     1 has atomic number  7 and mass  14.00307

 Molecular mass:   238.98971 amu.
 Principal axes and moments of inertia in atomic units:
                           1         2         3
     Eigenvalues --  1601.649855653.856486568.10678
           X            0.99994  -0.01133  -0.00008
           Y            0.01133   0.99993  -0.00359
           Z            0.00012   0.00359   0.99999
 This molecule is an asymmetric top.
 Rotational symmetry number  1.
 Warning -- assumption of classical behavior for rotation
           may cause significant error
 Rotational temperatures (Kelvin)      0.05408     0.01532     0.01319
 Rotational constants (GHZ):           1.12680     0.31921     0.27477
 Zero-point vibrational energy     432080.3 (Joules/Mol)
                                  103.26967 (Kcal/Mol)
 Warning -- explicit consideration of  24 degrees of freedom as
           vibrations may cause significant error
 Vibrational temperatures:     85.07    97.86   152.14   195.76   259.82
          (Kelvin)            318.62   330.97   364.95   396.56   457.46
                              484.44   499.47   543.50   571.16   587.77
                              618.51   670.24   719.08   723.20   731.75
                              769.12   795.81   826.61   854.22   980.27
                              988.50  1033.91  1095.97  1159.89  1192.45
                             1212.21  1229.04  1261.63  1276.22  1382.44
                             1516.23  1557.34  1590.22  1629.69  1675.47
                             1724.60  1737.12  1760.76  1801.16  1917.72
                             1945.73  2010.24  2015.94  2047.60  2120.81
                             2284.23  2330.72  2387.27  2806.22  4426.48
                             4514.10  4530.09  4558.30  4563.14  4574.83
                             4590.36  5145.73  5305.89

 Zero-point correction=                           0.164571 (Hartree/Particle)
 Thermal correction to Energy=                    0.178092
 Thermal correction to Enthalpy=                  0.179036
 Thermal correction to Gibbs Free Energy=         0.124730
 Sum of electronic and zero-point Energies=          -1635.513070
 Sum of electronic and thermal Energies=             -1635.499549
 Sum of electronic and thermal Enthalpies=           -1635.498605
 Sum of electronic and thermal Free Energies=        -1635.552912

                     E (Thermal)             CV                S
                      KCal/Mol        Cal/Mol-Kelvin    Cal/Mol-Kelvin
 Total                  111.755             52.925            114.299
 Electronic               0.000              0.000              0.000
 Translational            0.889              2.981             42.315
 Rotational               0.889              2.981             32.453
 Vibrational            109.977             46.963             39.530
 Vibration     1          0.596              1.974              4.486
 Vibration     2          0.598              1.969              4.210
 Vibration     3          0.605              1.945              3.346
 Vibration     4          0.614              1.917              2.859
 Vibration     5          0.630              1.866              2.322
 Vibration     6          0.648              1.808              1.947
 Vibration     7          0.652              1.795              1.879
 Vibration     8          0.665              1.757              1.705
 Vibration     9          0.677              1.718              1.561
 Vibration    10          0.704              1.639              1.321
 Vibration    11          0.717              1.602              1.228
 Vibration    12          0.725              1.581              1.179
 Vibration    13          0.748              1.518              1.048
 Vibration    14          0.763              1.477              0.974
 Vibration    15          0.773              1.452              0.932
 Vibration    16          0.791              1.405              0.859
 Vibration    17          0.823              1.326              0.749
 Vibration    18          0.855              1.250              0.659
 Vibration    19          0.858              1.244              0.652
 Vibration    20          0.864              1.231              0.637
 Vibration    21          0.890              1.174              0.577
 Vibration    22          0.908              1.133              0.538
 Vibration    23          0.931              1.086              0.496
 Vibration    24          0.951              1.045              0.461

                           ! Non-Optimized Parameters !
 Normal termination of Gaussian 16 at Fri May 19 10:44:06 2023.
