 Gaussian 16, Revision A.03,
 Gaussian 16:  ES64L-G16RevA.03 25-Dec-2016

 -----------------------------
 # opt freq b3lyp/6-31g(2df,p)
 -----------------------------

 -------------------
 Title Card Required
 -------------------
 Symbolic Z-matrix:
 Charge =  0 Multiplicity = 1

 SCF Done:  E(RB3LYP) =  -1347.52813486     A.U. after   25 cycles
 SCF Done:  E(RB3LYP) =  -1347.61896439     A.U. after   20 cycles
 SCF Done:  E(RB3LYP) =  -1347.71028114     A.U. after   21 cycles
 SCF Done:  E(RB3LYP) =  -1347.80857239     A.U. after   22 cycles
 SCF Done:  E(RB3LYP) =  -1347.87441368     A.U. after   23 cycles
 SCF Done:  E(RB3LYP) =  -1347.92340205     A.U. after   21 cycles
 SCF Done:  E(RB3LYP) =  -1347.96814292     A.U. after   21 cycles
 SCF Done:  E(RB3LYP) =  -1347.99841307     A.U. after   19 cycles
 SCF Done:  E(RB3LYP) =  -1348.01690307     A.U. after   18 cycles
 SCF Done:  E(RB3LYP) =  -1348.03364547     A.U. after   16 cycles
 SCF Done:  E(RB3LYP) =  -1348.15043994     A.U. after    8 cycles
 SCF Done:  E(RB3LYP) =  -1348.15043999     A.U. after    7 cycles
 SCF Done:  E(RB3LYP) =  -1348.15044006     A.U. after    7 cycles
 SCF Done:  E(RB3LYP) =  -1348.15044014     A.U. after    7 cycles
 SCF Done:  E(RB3LYP) =  -1348.15044021     A.U. after    8 cycles
 SCF Done:  E(RB3LYP) =  -1348.15044027     A.U. after    8 cycles
 SCF Done:  E(RB3LYP) =  -1348.15044031     A.U. after    7 cycles
 SCF Done:  E(RB3LYP) =  -1348.15044035     A.U. after    7 cycles
 SCF Done:  E(RB3LYP) =  -1348.15044037     A.U. after    6 cycles
 Optimization completed.
    -- Stationary point found.
 Normal termination of Gaussian 16 at Fri May 19 21:33:03 2023.

 ----------------------------------------------------------------------
 #N Geom=AllCheck Guess=TCheck SCRF=Check GenChk RB3LYP/6-31G(2df,p) Fr
 eq
 ----------------------------------------------------------------------

 Structure from the checkpoint file:  "NC1dC2CdCCdCCdCNd[SH]CqdC1rSN2.chk"
 -------------------
 Title Card Required
 -------------------
 Charge =  0 Multiplicity = 1

                         Standard orientation:
 ---------------------------------------------------------------------
 Center     Atomic      Atomic             Coordinates (Angstroms)
 Number     Number       Type             X           Y           Z
 ---------------------------------------------------------------------
      1          7           0       -3.877981    1.809201    0.967069
      2          6           0       -3.650879    0.816116   -0.040889
      3          6           0       -2.261171    0.216901   -0.104971
      4          6           0       -1.115610    0.953016   -0.108714
      5          6           0        0.220851    0.449673   -0.079402
      6          6           0        1.345837    1.213907   -0.075856
      7          6           0        2.672920    0.680159   -0.054595
      8          6           0        3.796555    1.446466   -0.048670
      9          6           0        5.183795    1.042838   -0.023952
     10          7           0        5.789161   -0.096822    0.007081
     11         16           0        4.937580   -1.565407    0.027724
     12          6           0       -4.588010   -0.408567   -0.233612
     13          6           0       -4.665991    0.584709   -1.084321
     14         16           0       -3.919907   -1.874422    0.241397
     15          7           0       -2.296907   -1.180796   -0.055241
     16          1           0       -3.122510    1.850278    1.640011
     17          1           0       -4.013934    2.733078    0.573148
     18          1           0       -1.242011    2.030871   -0.157191
     19          1           0        0.355490   -0.631742   -0.079716
     20          1           0        1.244248    2.298467   -0.090890
     21          1           0        2.746707   -0.402404   -0.042735
     22          1           0        3.658719    2.526533   -0.064580
     23          1           0        5.886483    1.880701   -0.032157
     24          1           0        6.045501   -2.330788    0.060970
     25          1           0       -5.186722    1.016229   -1.926057
     26          1           0       -1.584437   -1.626345    0.510776
 ---------------------------------------------------------------------

 SCF Done:  E(RB3LYP) =  -1348.15044037     A.U. after    1 cycles

 The electronic state is 1-A.
 Alpha  occ. eigenvalues --  -88.94209 -88.89397 -14.37874 -14.33823 -14.32884
 Alpha  occ. eigenvalues --  -10.25661 -10.24403 -10.23542 -10.23433 -10.21804
 Alpha  occ. eigenvalues --  -10.19835 -10.19578 -10.18753 -10.18550 -10.18487
 Alpha  occ. eigenvalues --   -7.99902  -7.95635  -5.96519  -5.96083  -5.95377
 Alpha  occ. eigenvalues --   -5.92101  -5.91744  -5.91215  -0.97498  -0.91494
 Alpha  occ. eigenvalues --   -0.91450  -0.85900  -0.82137  -0.79099  -0.75895
 Alpha  occ. eigenvalues --   -0.73212  -0.70851  -0.65897  -0.61382  -0.57503
 Alpha  occ. eigenvalues --   -0.57126  -0.55367  -0.53531  -0.51601  -0.50819
 Alpha  occ. eigenvalues --   -0.49001  -0.48325  -0.45459  -0.44732  -0.42209
 Alpha  occ. eigenvalues --   -0.41368  -0.40702  -0.39791  -0.39194  -0.37987
 Alpha  occ. eigenvalues --   -0.37181  -0.36855  -0.35357  -0.34102  -0.31982
 Alpha  occ. eigenvalues --   -0.29861  -0.28306  -0.25194  -0.24611  -0.24101
 Alpha  occ. eigenvalues --   -0.22313  -0.18008
 Alpha virt. eigenvalues --   -0.07037  -0.04947  -0.02621   0.00865   0.02260
 Alpha virt. eigenvalues --    0.06839   0.07112   0.07198   0.07983   0.08267
 Alpha virt. eigenvalues --    0.10505   0.10925   0.11909   0.13171   0.13607

 Mulliken charges:
               1
     1  N   -0.562636
     2  C    0.217634
     3  C    0.281033
     4  C   -0.203033
     5  C   -0.105125
     6  C   -0.082486
     7  C   -0.099541
     8  C   -0.102091
     9  C    0.032197
    10  N   -0.238447
    11  S   -0.147504
    12  C    0.066025
    13  C   -0.249807
    14  S    0.007403
    15  N   -0.407376
    16  H    0.234549
    17  H    0.236488
    18  H    0.079216
    19  H    0.080313
    20  H    0.079354
    21  H    0.116927
    22  H    0.082793
    23  H    0.105806
    24  H    0.152985
    25  H    0.157665
    26  H    0.267656
 Sum of Mulliken charges =  -0.00000

 Dipole moment (field-independent basis, Debye):
    X=             -3.3732    Y=              1.3303    Z=              0.0378  Tot=              3.6262
 Quadrupole moment (field-independent basis, Debye-Ang):
   XX=           -114.8633   YY=            -88.9713   ZZ=           -104.3883
   XY=             -5.1237   XZ=              4.9804   YZ=             -2.8718

  Exact polarizability: 437.560  14.251 187.848   9.488  -6.791  91.719
 Approx polarizability: 683.779  60.009 345.961  18.146 -20.906 159.829

                      1                      2                      3
                      A                      A                      A
 Frequencies --     21.0270                36.4967                39.3388
 Red. masses --      6.1379                 8.6063                 5.7809
 Frc consts  --      0.0016                 0.0068                 0.0053
 IR Inten    --      0.0730                 0.1000                 0.4130

                      4                      5                      6
                      A                      A                      A
 Frequencies --     74.5711                82.0955               106.3696
 Red. masses --      4.5980                 2.4420                 4.1545
 Frc consts  --      0.0151                 0.0097                 0.0277
 IR Inten    --      4.7059                10.4990                 3.2981

                      7                      8                      9
                      A                      A                      A
 Frequencies --    118.0730               163.3517               184.3113
 Red. masses --      2.6493                 2.7305                 2.8551
 Frc consts  --      0.0218                 0.0429                 0.0571
 IR Inten    --      4.4690                 2.3032                 7.8403

                     10                     11                     12
                      A                      A                      A
 Frequencies --    192.0211               235.0847               244.2044
 Red. masses --      4.3791                 5.2963                 2.7869
 Frc consts  --      0.0951                 0.1725                 0.0979
 IR Inten    --      2.6732                 3.9425                 5.7497

                     13                     14                     15
                      A                      A                      A
 Frequencies --    278.1058               290.6004               345.2086
 Red. masses --      2.2768                 5.2672                 1.6468
 Frc consts  --      0.1038                 0.2621                 0.1156
 IR Inten    --      6.9029                13.1704                 2.6904

                     16                     17                     18
                      A                      A                      A
 Frequencies --    362.6880               390.0196               417.9354
 Red. masses --      1.5004                 2.1183                 2.9089
 Frc consts  --      0.1163                 0.1898                 0.2994
 IR Inten    --     36.0273               206.7351                 9.2519

                     19                     20                     21
                      A                      A                      A
 Frequencies --    433.3475               465.0067               504.8843
 Red. masses --      5.4507                 3.7098                11.5642
 Frc consts  --      0.6031                 0.4726                 1.7368
 IR Inten    --      5.5713                86.2912                 2.7873

                     22                     23                     24
                      A                      A                      A
 Frequencies --    547.3449               557.8161               572.2201
 Red. masses --      3.2851                 4.0568                 4.8648
 Frc consts  --      0.5799                 0.7437                 0.9385
 IR Inten    --     10.6643                32.0004                44.8802

                     25                     26                     27
                      A                      A                      A
 Frequencies --    622.2631               645.9441               651.5798
 Red. masses --      3.8840                 9.1764                 3.6599
 Frc consts  --      0.8861                 2.2559                 0.9155
 IR Inten    --     53.5043                51.6953                15.4280

                     28                     29                     30
                      A                      A                      A
 Frequencies --    711.6537               728.5522               770.5627
 Red. masses --      2.0658                 2.6122                 4.1799
 Frc consts  --      0.6164                 0.8169                 1.4623
 IR Inten    --     62.5289                95.5056                29.0877

                     31                     32                     33
                      A                      A                      A
 Frequencies --    784.1785               812.8853               828.1859
 Red. masses --      3.9548                 1.9046                 1.6395
 Frc consts  --      1.4329                 0.7415                 0.6626
 IR Inten    --      7.9633               184.8630                38.4939

                     34                     35                     36
                      A                      A                      A
 Frequencies --    847.8453               863.2625               902.0824
 Red. masses --      2.2736                 1.8509                 1.9946
 Frc consts  --      0.9629                 0.8127                 0.9563
 IR Inten    --     11.1378                23.6957                 3.5935

                     37                     38                     39
                      A                      A                      A
 Frequencies --    945.2972               974.7864               991.4640
 Red. masses --      1.4646                 1.1645                 2.0857
 Frc consts  --      0.7711                 0.6519                 1.2080
 IR Inten    --      1.5949                 2.0689                38.1556

                     40                     41                     42
                      A                      A                      A
 Frequencies --   1016.6178              1032.8197              1068.2206
 Red. masses --      2.2108                 1.0897                 1.5702
 Frc consts  --      1.3462                 0.6848                 1.0557
 IR Inten    --     12.4933                43.7127                31.4801

                     43                     44                     45
                      A                      A                      A
 Frequencies --   1074.9953              1120.6292              1193.5459
 Red. masses --      1.4785                 2.9759                 2.1631
 Frc consts  --      1.0067                 2.2019                 1.8156
 IR Inten    --     16.7044               140.8552                45.2927

                     46                     47                     48
                      A                      A                      A
 Frequencies --   1210.3031              1248.2973              1275.0242
 Red. masses --      2.9233                 1.7569                 2.1371
 Frc consts  --      2.5230                 1.6130                 2.0470
 IR Inten    --     35.8026                43.9051                27.0529

                     49                     50                     51
                      A                      A                      A
 Frequencies --   1281.3125              1296.4188              1314.0776
 Red. masses --      1.6511                 1.4307                 1.8263
 Frc consts  --      1.5971                 1.4168                 1.8581
 IR Inten    --     20.0206                 1.6211               198.1268

                     52                     53                     54
                      A                      A                      A
 Frequencies --   1335.9960              1344.5905              1399.2868
 Red. masses --      1.4105                 1.3436                 1.6951
 Frc consts  --      1.4833                 1.4312                 1.9556
 IR Inten    --     31.9591                60.5604                25.6757

                     55                     56                     57
                      A                      A                      A
 Frequencies --   1415.4966              1582.9228              1618.4185
 Red. masses --      1.2157                 5.7118                 5.9331
 Frc consts  --      1.4352                 8.4322                 9.1561
 IR Inten    --      4.8681               747.6912                48.1572

                     58                     59                     60
                      A                      A                      A
 Frequencies --   1652.1217              1656.5863              1667.4913
 Red. masses --      4.1086                 1.1847                 4.7155
 Frc consts  --      6.6074                 1.9156                 7.7251
 IR Inten    --    244.4783                34.1283                 1.9079

                     61                     62                     63
                      A                      A                      A
 Frequencies --   1721.3035              2654.2792              3083.0260
 Red. masses --      7.5600                 1.0396                 1.0843
 Frc consts  --     13.1974                 4.3153                 6.0725
 IR Inten    --     21.9702                 8.7446                60.8271

                     64                     65                     66
                      A                      A                      A
 Frequencies --   3125.7119              3133.9298              3138.2340
 Red. masses --      1.0874                 1.0869                 1.0877
 Frc consts  --      6.2596                 6.2896                 6.3114
 IR Inten    --      1.8882                 8.0582                32.8717

                     67                     68                     69
                      A                      A                      A
 Frequencies --   3163.2194              3186.4251              3235.5099
 Red. masses --      1.0869                 1.0868                 1.1113
 Frc consts  --      6.4079                 6.5014                 6.8541
 IR Inten    --     13.1291                16.8501                 1.5405

                     70                     71                     72
                      A                      A                      A
 Frequencies --   3519.7852              3559.3053              3609.5600
 Red. masses --      1.0485                 1.0763                 1.0945
 Frc consts  --      7.6534                 8.0337                 8.4017
 IR Inten    --      4.1545                29.6262                 6.3341

 - Thermochemistry -
 -------------------
 Temperature   298.150 Kelvin.  Pressure   1.00000 Atm.
 Atom     1 has atomic number  7 and mass  14.00307

 Molecular mass:   237.03944 amu.
 Principal axes and moments of inertia in atomic units:
                           1         2         3
     Eigenvalues --  1509.60185********************
           X            0.99999  -0.00443   0.00045
           Y            0.00442   0.99999   0.00278
           Z           -0.00047  -0.00278   1.00000
 This molecule is an asymmetric top.
 Rotational symmetry number  1.
 Warning -- assumption of classical behavior for rotation
           may cause significant error
 Rotational temperatures (Kelvin)      0.05738     0.00680     0.00619
 Rotational constants (GHZ):           1.19551     0.14167     0.12908
 Zero-point vibrational energy     500506.3 (Joules/Mol)
                                  119.62389 (Kcal/Mol)
 Warning -- explicit consideration of  24 degrees of freedom as
           vibrations may cause significant error
 Vibrational temperatures:     30.25    52.51    56.60   107.29   118.12
          (Kelvin)            153.04   169.88   235.03   265.18   276.28
                              338.23   351.36   400.13   418.11   496.68
                              521.83   561.15   601.32   623.49   669.04
                              726.42   787.51   802.57   823.30   895.30
                              929.37   937.48  1023.91  1048.22  1108.67
                             1128.26  1169.56  1191.57  1219.86  1242.04
                             1297.90  1360.07  1402.50  1426.50  1462.69
                             1486.00  1536.93  1546.68  1612.34  1717.25
                             1741.36  1796.02  1834.48  1843.52  1865.26
                             1890.66  1922.20  1934.57  2013.26  2036.58
                             2277.47  2328.54  2377.03  2383.46  2399.15
                             2476.57  3818.92  4435.79  4497.20  4509.03
                             4515.22  4551.17  4584.55  4655.18  5064.19
                             5121.05  5193.35

 Zero-point correction=                           0.190633 (Hartree/Particle)
 Thermal correction to Energy=                    0.206888
 Thermal correction to Enthalpy=                  0.207832
 Thermal correction to Gibbs Free Energy=         0.144373
 Sum of electronic and zero-point Energies=          -1347.959808
 Sum of electronic and thermal Energies=             -1347.943552
 Sum of electronic and thermal Enthalpies=           -1347.942608
 Sum of electronic and thermal Free Energies=        -1348.006067

                     E (Thermal)             CV                S
                      KCal/Mol        Cal/Mol-Kelvin    Cal/Mol-Kelvin
 Total                  129.824             59.061            133.562
 Electronic               0.000              0.000              0.000
 Translational            0.889              2.981             42.291
 Rotational               0.889              2.981             33.952
 Vibrational            128.047             53.100             57.319
 Vibration     1          0.593              1.985              6.535
 Vibration     2          0.594              1.982              5.441
 Vibration     3          0.594              1.981              5.292
 Vibration     4          0.599              1.966              4.029
 Vibration     5          0.600              1.961              3.840
 Vibration     6          0.605              1.944              3.334
 Vibration     7          0.608              1.934              3.132
 Vibration     8          0.623              1.887              2.511
 Vibration     9          0.631              1.861              2.284
 Vibration    10          0.634              1.851              2.208
 Vibration    11          0.655              1.787              1.840
 Vibration    12          0.660              1.772              1.772
 Vibration    13          0.679              1.714              1.545
 Vibration    14          0.687              1.691              1.470
 Vibration    15          0.724              1.585              1.188
 Vibration    16          0.737              1.549              1.111
 Vibration    17          0.758              1.492              1.000
 Vibration    18          0.781              1.431              0.899
 Vibration    19          0.794              1.398              0.848
 Vibration    20          0.822              1.328              0.752
 Vibration    21          0.860              1.239              0.646
 Vibration    22          0.903              1.145              0.550
 Vibration    23          0.913              1.123              0.528
 Vibration    24          0.928              1.091              0.500

                           ! Non-Optimized Parameters !
 Normal termination of Gaussian 16 at Fri May 19 23:01:22 2023.
