 Gaussian 16, Revision A.03,
 Gaussian 16:  ES64L-G16RevA.03 25-Dec-2016

 -----------------------------
 # opt freq b3lyp/6-31g(2df,p)
 -----------------------------

 -------------------
 Title Card Required
 -------------------
 Symbolic Z-matrix:
 Charge =  0 Multiplicity = 1

 SCF Done:  E(RB3LYP) =  -1291.26463416     A.U. after   39 cycles
 SCF Done:  E(RB3LYP) =  -1291.33088154     A.U. after   26 cycles
 SCF Done:  E(RB3LYP) =  -1291.43397949     A.U. after   19 cycles
 SCF Done:  E(RB3LYP) =  -1291.46443275     A.U. after   17 cycles
 SCF Done:  E(RB3LYP) =  -1291.48690285     A.U. after   18 cycles
 SCF Done:  E(RB3LYP) =  -1291.50301863     A.U. after   18 cycles
 SCF Done:  E(RB3LYP) =  -1291.51409463     A.U. after   18 cycles
 SCF Done:  E(RB3LYP) =  -1291.52846554     A.U. after   19 cycles
 SCF Done:  E(RB3LYP) =  -1291.54076044     A.U. after   21 cycles
 SCF Done:  E(RB3LYP) =  -1291.56274324     A.U. after   25 cycles
 SCF Done:  E(RB3LYP) =  -1291.63042902     A.U. after   17 cycles
 SCF Done:  E(RB3LYP) =  -1291.63035501     A.U. after   14 cycles
 SCF Done:  E(RB3LYP) =  -1291.63063767     A.U. after   14 cycles
 SCF Done:  E(RB3LYP) =  -1291.63072592     A.U. after   13 cycles
 SCF Done:  E(RB3LYP) =  -1291.63076243     A.U. after   15 cycles
 SCF Done:  E(RB3LYP) =  -1291.63082402     A.U. after   14 cycles
 SCF Done:  E(RB3LYP) =  -1291.63085499     A.U. after   12 cycles
 SCF Done:  E(RB3LYP) =  -1291.63086308     A.U. after   11 cycles
 SCF Done:  E(RB3LYP) =  -1291.63086331     A.U. after   10 cycles
 Optimization completed.
    -- Stationary point found.
 Normal termination of Gaussian 16 at Tue May 16 21:58:58 2023.

 ----------------------------------------------------------------------
 #N Geom=AllCheck Guess=TCheck SCRF=Check GenChk RB3LYP/6-31G(2df,p) Fr
 eq
 ----------------------------------------------------------------------

 Structure from the checkpoint file:  "NC1dCCdCC2dCqNdSrCdCSC1dC2.chk"
 -------------------
 Title Card Required
 -------------------
 Charge =  0 Multiplicity = 1

                         Standard orientation:
 ---------------------------------------------------------------------
 Center     Atomic      Atomic             Coordinates (Angstroms)
 Number     Number       Type             X           Y           Z
 ---------------------------------------------------------------------
      1          7           0       -3.549896   -0.097671    0.945388
      2          6           0       -2.487451    0.461680    0.286416
      3          6           0       -2.342500    1.854826    0.258973
      4          6           0       -1.215357    2.629488   -0.071856
      5          6           0        0.082469    2.215114   -0.351178
      6          6           0        0.402240    0.886597   -0.643904
      7          6           0        1.538226    0.123448   -0.255274
      8          7           0        2.690003    0.790371   -0.047482
      9         16           0        4.041590    0.088303    0.514993
     10          6           0        1.361194   -1.317780    0.055216
     11          6           0        0.341120   -2.201551    0.142500
     12         16           0       -1.442619   -2.152082   -0.202275
     13          6           0       -1.631760   -0.407744   -0.464878
     14          6           0       -0.569728   -0.003440   -1.230821
     15          1           0       -4.019283    0.456455    1.642420
     16          1           0       -3.507896   -1.086393    1.138961
     17          1           0       -3.170514    2.410931    0.692888
     18          1           0       -1.341016    3.693904    0.110255
     19          1           0        0.899920    2.912332   -0.192633
     20          1           0        2.314863   -1.734563    0.387960
     21          1           0        0.554356   -3.200481    0.513783
     22          1           0       -0.165435   -0.724438   -1.933605
 ---------------------------------------------------------------------

 SCF Done:  E(RB3LYP) =  -1291.63086331     A.U. after    1 cycles

 The electronic state is 1-A.
 Alpha  occ. eigenvalues --  -88.92173 -88.83949 -14.38125 -14.34362 -10.27981
 Alpha  occ. eigenvalues --  -10.25704 -10.23155 -10.22864 -10.22831 -10.22692
 Alpha  occ. eigenvalues --  -10.22272 -10.21984 -10.21411 -10.19957  -7.98230
 Alpha  occ. eigenvalues --   -7.90184  -5.94694  -5.94324  -5.93884  -5.86653
 Alpha  occ. eigenvalues --   -5.86389  -5.85657  -0.96777  -0.91781  -0.88141
 Alpha  occ. eigenvalues --   -0.83747  -0.80053  -0.78134  -0.74846  -0.68992
 Alpha  occ. eigenvalues --   -0.67959  -0.65663  -0.59786  -0.58425  -0.57020
 Alpha  occ. eigenvalues --   -0.53323  -0.52300  -0.50605  -0.47926  -0.47121
 Alpha  occ. eigenvalues --   -0.45979  -0.43819  -0.42375  -0.41707  -0.40534
 Alpha  occ. eigenvalues --   -0.38802  -0.37549  -0.36653  -0.35430  -0.33444
 Alpha  occ. eigenvalues --   -0.32018  -0.29065  -0.28035  -0.26136  -0.24156
 Alpha  occ. eigenvalues --   -0.18689  -0.16654
 Alpha virt. eigenvalues --   -0.10586  -0.09058  -0.04684   0.00289   0.01134
 Alpha virt. eigenvalues --    0.05264   0.06520   0.07389   0.08562   0.09124
 Alpha virt. eigenvalues --    0.10249   0.10937   0.12382   0.14165   0.15797

 Mulliken charges:
               1
     1  N   -0.560142
     2  C    0.252659
     3  C   -0.165133
     4  C   -0.064004
     5  C   -0.193455
     6  C    0.216805
     7  C    0.213351
     8  N   -0.243250
     9  S   -0.296596
    10  C   -0.087931
    11  C   -0.188819
    12  S   -0.123350
    13  C    0.172746
    14  C   -0.282781
    15  H    0.269018
    16  H    0.279912
    17  H    0.099172
    18  H    0.116584
    19  H    0.143346
    20  H    0.148579
    21  H    0.132563
    22  H    0.160725
 Sum of Mulliken charges =  -0.00000

 Dipole moment (field-independent basis, Debye):
    X=             -8.3697    Y=              0.1285    Z=              1.1090  Tot=              8.4439
 Quadrupole moment (field-independent basis, Debye-Ang):
   XX=           -104.8650   YY=            -86.7968   ZZ=            -92.5782
   XY=             -7.3853   XZ=            -10.1297   YZ=             -0.0819

  Exact polarizability: 328.001  -5.106 182.981   7.156  -2.699  89.250
 Approx polarizability: 842.596  -5.436 352.889  59.118 -16.888 184.390

                      1                      2                      3
                      A                      A                      A
 Frequencies --     48.9187               106.6523               132.9445
 Red. masses --      6.6386                 6.0184                 4.4830
 Frc consts  --      0.0094                 0.0403                 0.0467
 IR Inten    --      6.6046                 1.8934                 1.8632

                      4                      5                      6
                      A                      A                      A
 Frequencies --    156.7857               193.1382               211.7597
 Red. masses --      9.0704                 4.3298                 8.0734
 Frc consts  --      0.1314                 0.0952                 0.2133
 IR Inten    --      2.2402                30.8445                22.0775

                      7                      8                      9
                      A                      A                      A
 Frequencies --    246.9735               285.6674               318.8677
 Red. masses --      7.3874                 6.4685                 6.8110
 Frc consts  --      0.2655                 0.3110                 0.4080
 IR Inten    --      1.6271                 7.9643                11.7672

                     10                     11                     12
                      A                      A                      A
 Frequencies --    358.5287               399.9145               412.6419
 Red. masses --      3.3496                 3.9305                 1.3727
 Frc consts  --      0.2537                 0.3704                 0.1377
 IR Inten    --     15.5046               139.2970                30.1307

                     13                     14                     15
                      A                      A                      A
 Frequencies --    425.1397               436.9761               457.5601
 Red. masses --      1.9629                 2.5277                 3.5886
 Frc consts  --      0.2090                 0.2844                 0.4427
 IR Inten    --    266.0447                63.2413                 3.2156

                     16                     17                     18
                      A                      A                      A
 Frequencies --    465.8057               479.0989               571.7597
 Red. masses --      4.4429                 4.1270                 4.0589
 Frc consts  --      0.5680                 0.5581                 0.7818
 IR Inten    --      2.5498                 0.2430                16.8432

                     19                     20                     21
                      A                      A                      A
 Frequencies --    575.2273               609.1373               625.1527
 Red. masses --      5.7781                 5.3989                 3.0315
 Frc consts  --      1.1265                 1.1803                 0.6980
 IR Inten    --     25.8856                 2.9581                12.7547

                     22                     23                     24
                      A                      A                      A
 Frequencies --    686.7870               701.0662               727.7776
 Red. masses --      3.8895                 7.6608                 2.8015
 Frc consts  --      1.0809                 2.2184                 0.8742
 IR Inten    --      3.0173                 4.5793                20.9114

                     25                     26                     27
                      A                      A                      A
 Frequencies --    741.4472               764.7425               815.3919
 Red. masses --      4.6340                 2.0917                 1.8396
 Frc consts  --      1.5010                 0.7208                 0.7206
 IR Inten    --     38.1035                38.1236                21.9123

                     28                     29                     30
                      A                      A                      A
 Frequencies --    866.4385               876.5351               913.0033
 Red. masses --      5.2457                 1.5419                 3.6058
 Frc consts  --      2.3202                 0.6980                 1.7709
 IR Inten    --     81.4544                67.8020                94.4264

                     31                     32                     33
                      A                      A                      A
 Frequencies --    948.6544               969.7616               974.7041
 Red. masses --      2.2188                 1.3236                 2.1198
 Frc consts  --      1.1765                 0.7334                 1.1866
 IR Inten    --     78.6569                 8.5910                17.7296

                     34                     35                     36
                      A                      A                      A
 Frequencies --    998.0251              1035.6859              1055.1681
 Red. masses --      1.3799                 3.1414                 2.4436
 Frc consts  --      0.8098                 1.9853                 1.6030
 IR Inten    --     10.9564                 0.7992                 9.7926

                     37                     38                     39
                      A                      A                      A
 Frequencies --   1124.1163              1225.6471              1254.1398
 Red. masses --      1.4085                 1.2763                 1.4946
 Frc consts  --      1.0486                 1.1296                 1.3851
 IR Inten    --      3.6305               121.0245                57.0154

                     40                     41                     42
                      A                      A                      A
 Frequencies --   1258.1129              1331.8671              1334.2609
 Red. masses --      2.7220                 1.3502                 2.4204
 Frc consts  --      2.5385                 1.4111                 2.5388
 IR Inten    --    289.1403                21.3172                20.8848

                     43                     44                     45
                      A                      A                      A
 Frequencies --   1348.6155              1378.4253              1392.4157
 Red. masses --      1.5489                 2.2821                 2.9390
 Frc consts  --      1.6598                 2.5548                 3.3572
 IR Inten    --     15.2673                 7.7697               436.2871

                     46                     47                     48
                      A                      A                      A
 Frequencies --   1429.2060              1485.6729              1515.8764
 Red. masses --      4.8987                 2.3300                 5.6872
 Frc consts  --      5.8956                 3.0301                 7.6997
 IR Inten    --     30.3536               258.2330                48.1746

                     49                     50                     51
                      A                      A                      A
 Frequencies --   1551.0364              1569.1652              1601.0729
 Red. masses --      4.3729                 6.7931                 3.9268
 Frc consts  --      6.1981                 9.8550                 5.9307
 IR Inten    --     30.1980                11.5466                26.4851

                     52                     53                     54
                      A                      A                      A
 Frequencies --   1653.9956              3086.5753              3143.5047
 Red. masses --      1.2532                 1.0827                 1.0847
 Frc consts  --      2.0200                 6.0773                 6.3150
 IR Inten    --    208.8471                26.9636                11.5832

                     55                     56                     57
                      A                      A                      A
 Frequencies --   3160.6606              3163.6193              3171.8729
 Red. masses --      1.0892                 1.0876                 1.0878
 Frc consts  --      6.4105                 6.4134                 6.4482
 IR Inten    --      1.6149                14.8179                 1.5191

                     58                     59                     60
                      A                      A                      A
 Frequencies --   3183.4275              3586.9019              3703.1141
 Red. masses --      1.0903                 1.0467                 1.1007
 Frc consts  --      6.5104                 7.9343                 8.8934
 IR Inten    --      3.4487                91.2893                42.1969

 - Thermochemistry -
 -------------------
 Temperature   298.150 Kelvin.  Pressure   1.00000 Atm.
 Atom     1 has atomic number  7 and mass  14.00307

 Molecular mass:   220.01289 amu.
 Principal axes and moments of inertia in atomic units:
                           1         2         3
     Eigenvalues --  1920.263174366.070095850.12844
           X            0.99975  -0.01981  -0.01049
           Y            0.01982   0.99980   0.00071
           Z            0.01048  -0.00092   0.99994
 This molecule is an asymmetric top.
 Rotational symmetry number  1.
 Warning -- assumption of classical behavior for rotation
           may cause significant error
 Rotational temperatures (Kelvin)      0.04511     0.01984     0.01481
 Rotational constants (GHZ):           0.93984     0.41336     0.30850
 Zero-point vibrational energy     414189.9 (Joules/Mol)
                                   98.99376 (Kcal/Mol)
 Warning -- explicit consideration of  20 degrees of freedom as
           vibrations may cause significant error
 Vibrational temperatures:     70.38   153.45   191.28   225.58   277.88
          (Kelvin)            304.67   355.34   411.01   458.78   515.84
                              575.39   593.70   611.68   628.71   658.33
                              670.19   689.32   822.63   827.62   876.41
                              899.46   988.13  1008.68  1047.11  1066.78
                             1100.29  1173.17  1246.61  1261.14  1313.61
                             1364.90  1395.27  1402.38  1435.94  1490.12
                             1518.15  1617.35  1763.43  1804.43  1810.14
                             1916.26  1919.70  1940.36  1983.25  2003.38
                             2056.31  2137.55  2181.01  2231.60  2257.68
                             2303.59  2379.73  4440.89  4522.80  4547.49
                             4551.74  4563.62  4580.24  5160.75  5327.96

 Zero-point correction=                           0.157757 (Hartree/Particle)
 Thermal correction to Energy=                    0.169942
 Thermal correction to Enthalpy=                  0.170886
 Thermal correction to Gibbs Free Energy=         0.119311
 Sum of electronic and zero-point Energies=          -1291.473107
 Sum of electronic and thermal Energies=             -1291.460921
 Sum of electronic and thermal Enthalpies=           -1291.459977
 Sum of electronic and thermal Free Energies=        -1291.511553

                     E (Thermal)             CV                S
                      KCal/Mol        Cal/Mol-Kelvin    Cal/Mol-Kelvin
 Total                  106.640             48.159            108.550
 Electronic               0.000              0.000              0.000
 Translational            0.889              2.981             42.068
 Rotational               0.889              2.981             32.261
 Vibrational            104.863             42.198             34.221
 Vibration     1          0.595              1.978              4.861
 Vibration     2          0.606              1.944              3.329
 Vibration     3          0.613              1.920              2.903
 Vibration     4          0.620              1.895              2.588
 Vibration     5          0.635              1.849              2.197
 Vibration     6          0.643              1.823              2.028
 Vibration     7          0.661              1.768              1.752
 Vibration     8          0.683              1.700              1.499
 Vibration     9          0.705              1.637              1.316
 Vibration    10          0.733              1.558              1.128
 Vibration    11          0.766              1.470              0.963
 Vibration    12          0.776              1.443              0.917
 Vibration    13          0.787              1.416              0.875
 Vibration    14          0.797              1.390              0.836
 Vibration    15          0.816              1.344              0.773
 Vibration    16          0.823              1.326              0.749
 Vibration    17          0.836              1.296              0.712
 Vibration    18          0.928              1.092              0.501
 Vibration    19          0.932              1.085              0.494
 Vibration    20          0.968              1.012              0.434

 Optimization completed.
    -- Stationary point found.
 Normal termination of Gaussian 16 at Tue May 16 23:23:10 2023.
