 Gaussian 16, Revision A.03,
 Gaussian 16:  ES64L-G16RevA.03 25-Dec-2016

 -----------------------------
 # opt freq b3lyp/6-31g(2df,p)
 -----------------------------

 -------------------
 Title Card Required
 -------------------
 Symbolic Z-matrix:
 Charge =  0 Multiplicity = 1

 SCF Done:  E(RB3LYP) =  -900.638956909     A.U. after   16 cycles
 SCF Done:  E(RB3LYP) =  -900.716491338     A.U. after   14 cycles
 SCF Done:  E(RB3LYP) =  -900.799909988     A.U. after   15 cycles
 SCF Done:  E(RB3LYP) =  -900.852490774     A.U. after   15 cycles
 SCF Done:  E(RB3LYP) =  -900.888421497     A.U. after   15 cycles
 SCF Done:  E(RB3LYP) =  -900.906106420     A.U. after   15 cycles
 SCF Done:  E(RB3LYP) =  -900.914181463     A.U. after   14 cycles
 SCF Done:  E(RB3LYP) =  -900.920412610     A.U. after   14 cycles
 SCF Done:  E(RB3LYP) =  -900.924534402     A.U. after   14 cycles
 SCF Done:  E(RB3LYP) =  -900.926043921     A.U. after   13 cycles
 SCF Done:  E(RB3LYP) =  -900.932312276     A.U. after   13 cycles
 SCF Done:  E(RB3LYP) =  -900.932375830     A.U. after   12 cycles
 SCF Done:  E(RB3LYP) =  -900.932402949     A.U. after   11 cycles
 SCF Done:  E(RB3LYP) =  -900.932410353     A.U. after    9 cycles
 SCF Done:  E(RB3LYP) =  -900.932412714     A.U. after   10 cycles
 SCF Done:  E(RB3LYP) =  -900.932414117     A.U. after    8 cycles
 SCF Done:  E(RB3LYP) =  -900.932414828     A.U. after    8 cycles
 SCF Done:  E(RB3LYP) =  -900.932415327     A.U. after    8 cycles
 SCF Done:  E(RB3LYP) =  -900.932415456     A.U. after    7 cycles
 Optimization completed.
    -- Stationary point found.
 Normal termination of Gaussian 16 at Fri May 19 08:58:06 2023.

 ----------------------------------------------------------------------
 #N Geom=AllCheck Guess=TCheck SCRF=Check GenChk RB3LYP/6-31G(2df,p) Fr
 eq
 ----------------------------------------------------------------------

 Structure from the checkpoint file:  "NC1dCC2dCCdCCdCC2dCCdCdc2cqdOrc2dCCdCCdC1.chk"
 -------------------
 Title Card Required
 -------------------
 Charge =  0 Multiplicity = 1

                         Standard orientation:
 ---------------------------------------------------------------------
 Center     Atomic      Atomic             Coordinates (Angstroms)
 Number     Number       Type             X           Y           Z
 ---------------------------------------------------------------------
      1          7           0       -0.466753    2.423406    1.709102
      2          6           0        0.485027    1.789644    0.910991
      3          6           0        1.373597    0.914328    1.464733
      4          6           0        2.278858   -0.008168    0.776503
      5          6           0        3.517294   -0.219894    1.316120
      6          6           0        4.627803   -0.947284    0.777386
      7          6           0        4.860401   -1.244306   -0.528694
      8          6           0        4.002016   -0.945043   -1.643796
      9          6           0        2.672778   -0.700961   -1.614947
     10          6           0        1.804815   -0.745273   -0.429900
     11          6           0        0.613007   -1.388044   -0.491451
     12          6           0       -0.339652   -1.509510    0.603933
     13          6           0       -1.632762   -1.694219    0.463307
     14          6           0       -2.918306   -1.538605    0.296780
     15          6           0       -4.357793   -1.788884    0.126742
     16          8           0       -5.270663   -2.564047    0.183447
     17          6           0       -3.847184   -0.464690   -0.059778
     18          6           0       -3.736833    0.812073   -0.512123
     19          6           0       -2.415666    1.352196   -0.533370
     20          6           0       -1.919393    2.442316   -1.171375
     21          6           0       -0.489025    2.643035   -1.294682
     22          6           0        0.516674    2.192507   -0.498561
     23          1           0       -0.344258    2.305221    2.704241
     24          1           0       -0.686459    3.373890    1.448588
     25          1           0        1.443331    0.909108    2.551946
     26          1           0        3.708967    0.264471    2.272639
     27          1           0        5.421846   -1.177598    1.483854
     28          1           0        5.817652   -1.696188   -0.774822
     29          1           0        4.476888   -0.962797   -2.622258
     30          1           0        2.170136   -0.526320   -2.564398
     31          1           0        0.313862   -1.817635   -1.443622
     32          1           0        0.042329   -1.353598    1.614501
     33          1           0       -4.589572    1.354779   -0.910967
     34          1           0       -1.682691    0.715807   -0.056762
     35          1           0       -2.573257    3.095764   -1.745157
     36          1           0       -0.180402    3.126115   -2.221362
     37          1           0        1.520261    2.230200   -0.914605
 ---------------------------------------------------------------------

 SCF Done:  E(RB3LYP) =  -900.932415456     A.U. after    1 cycles

 The electronic state is 1-A.
 Alpha  occ. eigenvalues --  -19.13528 -14.34293 -10.28565 -10.23501 -10.21400
 Alpha  occ. eigenvalues --  -10.21214 -10.21144 -10.20917 -10.20849 -10.20614
 Alpha  occ. eigenvalues --  -10.20542 -10.20231 -10.20203 -10.20167 -10.19655
 Alpha  occ. eigenvalues --  -10.19650 -10.19256 -10.19187 -10.19062 -10.18926
 Alpha  occ. eigenvalues --  -10.18766 -10.18405  -1.04136  -0.92478  -0.88612
 Alpha  occ. eigenvalues --   -0.85547  -0.82703  -0.81002  -0.79384  -0.78014
 Alpha  occ. eigenvalues --   -0.77376  -0.73945  -0.71844  -0.69656  -0.66445
 Alpha  occ. eigenvalues --   -0.64508  -0.62289  -0.59903  -0.57803  -0.54902
 Alpha  occ. eigenvalues --   -0.53743  -0.53276  -0.51766  -0.50534  -0.49369
 Alpha  occ. eigenvalues --   -0.49290  -0.48655  -0.46988  -0.46001  -0.44642
 Alpha  occ. eigenvalues --   -0.44325  -0.43555  -0.42591  -0.42363  -0.41949
 Alpha  occ. eigenvalues --   -0.40898  -0.40795  -0.38147  -0.37671  -0.36824
 Alpha  occ. eigenvalues --   -0.36655  -0.36014  -0.35117  -0.34281  -0.34210
 Alpha  occ. eigenvalues --   -0.33493  -0.31056  -0.30426  -0.27776  -0.26920
 Alpha  occ. eigenvalues --   -0.26348  -0.24557  -0.21524  -0.21119  -0.17717
 Alpha virt. eigenvalues --   -0.10468  -0.06175  -0.04418  -0.02570   0.02408
 Alpha virt. eigenvalues --    0.03659   0.06776   0.08121   0.08333   0.09155
 Alpha virt. eigenvalues --    0.09667   0.09983   0.10500   0.11227   0.11302

 Mulliken charges:
               1
     1  N   -0.546737
     2  C    0.273562
     3  C   -0.258487
     4  C    0.113915
     5  C   -0.135069
     6  C   -0.102799
     7  C   -0.113748
     8  C   -0.068586
     9  C   -0.163131
    10  C    0.147237
    11  C   -0.148538
    12  C   -0.322235
    13  C   -0.003757
    14  C    0.110074
    15  C    0.263071
    16  O   -0.313483
    17  C    0.139265
    18  C   -0.318054
    19  C    0.032631
    20  C   -0.188654
    21  C   -0.081163
    22  C   -0.158037
    23  H    0.245984
    24  H    0.248672
    25  H    0.082917
    26  H    0.085130
    27  H    0.092742
    28  H    0.094960
    29  H    0.095311
    30  H    0.106167
    31  H    0.093171
    32  H    0.128130
    33  H    0.116668
    34  H    0.133894
    35  H    0.098014
    36  H    0.104147
    37  H    0.116815
 Sum of Mulliken charges =  -0.00000

 Dipole moment (field-independent basis, Debye):
    X=              3.9745    Y=              5.0308    Z=              0.0996  Tot=              6.4122
 Quadrupole moment (field-independent basis, Debye-Ang):
   XX=           -141.1052   YY=           -126.4855   ZZ=           -113.2415
   XY=            -19.2896   XZ=              2.8110   YZ=              2.4405

  Exact polarizability: 443.768 -10.760 232.639   6.509 -16.004 180.964
 Approx polarizability: 822.508  12.922 484.902  20.760 -66.911 336.407

                      1                      2                      3
                      A                      A                      A
 Frequencies --     39.2230                49.7561                59.4361
 Red. masses --      4.4596                 6.1738                 5.6935
 Frc consts  --      0.0040                 0.0090                 0.0119
 IR Inten    --      0.9086                 0.2534                 0.4595

                      4                      5                      6
                      A                      A                      A
 Frequencies --     81.3266                97.3336               111.3169
 Red. masses --      4.7610                 5.1994                 6.6470
 Frc consts  --      0.0186                 0.0290                 0.0485
 IR Inten    --      0.8993                 0.3032                 1.3436

                      7                      8                      9
                      A                      A                      A
 Frequencies --    142.7509               145.5868               171.1723
 Red. masses --      4.0572                 4.6840                 5.3259
 Frc consts  --      0.0487                 0.0585                 0.0919
 IR Inten    --      1.7933                 1.2269                 1.1522

                     10                     11                     12
                      A                      A                      A
 Frequencies --    194.1376               218.4037               232.0191
 Red. masses --      3.0858                 4.4240                 5.2298
 Frc consts  --      0.0685                 0.1243                 0.1659
 IR Inten    --      0.3157                 0.6140                 3.2009

                     13                     14                     15
                      A                      A                      A
 Frequencies --    249.2946               265.7016               292.2938
 Red. masses --      3.8694                 2.8975                 3.5834
 Frc consts  --      0.1417                 0.1205                 0.1804
 IR Inten    --      2.2553                 3.0884                 0.8733

                     16                     17                     18
                      A                      A                      A
 Frequencies --    307.0060               312.6554               344.5781
 Red. masses --      3.9474                 4.3876                 3.7853
 Frc consts  --      0.2192                 0.2527                 0.2648
 IR Inten    --      1.0448                14.2223                 2.7485

                     19                     20                     21
                      A                      A                      A
 Frequencies --    361.1204               376.5123               385.8545
 Red. masses --      2.6260                 3.2010                 1.7323
 Frc consts  --      0.2018                 0.2674                 0.1520
 IR Inten    --      5.9951                 5.4701                 4.2791

                     22                     23                     24
                      A                      A                      A
 Frequencies --    411.2529               415.4151               442.4948
 Red. masses --      2.8277                 2.9580                 5.8044
 Frc consts  --      0.2818                 0.3008                 0.6696
 IR Inten    --      4.2442                 3.4452                 4.3123

                     25                     26                     27
                      A                      A                      A
 Frequencies --    475.3598               497.0465               509.3534
 Red. masses --      4.7693                 4.7785                 4.8344
 Frc consts  --      0.6350                 0.6956                 0.7390
 IR Inten    --      4.1183                 1.3258                 3.7263

                     28                     29                     30
                      A                      A                      A
 Frequencies --    535.1642               578.2255               590.9277
 Red. masses --      2.2780                 3.8066                 2.2965
 Frc consts  --      0.3844                 0.7499                 0.4725
 IR Inten    --    114.2316                42.7375                71.3910

                     31                     32                     33
                      A                      A                      A
 Frequencies --    603.8953               605.2562               630.7807
 Red. masses --      3.1389                 2.8436                 4.3805
 Frc consts  --      0.6745                 0.6138                 1.0269
 IR Inten    --      5.4600                 3.8627                25.5955

                     34                     35                     36
                      A                      A                      A
 Frequencies --    644.6192               686.5654               721.8093
 Red. masses --      5.0639                 7.0364                 2.3174
 Frc consts  --      1.2398                 1.9542                 0.7114
 IR Inten    --     15.3186                87.9429                 9.0953

                     37                     38                     39
                      A                      A                      A
 Frequencies --    728.6829               760.4994               778.0835
 Red. masses --      2.6161                 2.4892                 2.4030
 Frc consts  --      0.8184                 0.8482                 0.8572
 IR Inten    --     51.6625                 6.6792                11.8969

                     40                     41                     42
                      A                      A                      A
 Frequencies --    784.7276               805.4729               816.2932
 Red. masses --      2.4204                 1.7137                 2.7264
 Frc consts  --      0.8782                 0.6551                 1.0704
 IR Inten    --     28.8253                 5.1632                 7.5916

                     43                     44                     45
                      A                      A                      A
 Frequencies --    821.8397               839.0194               857.7985
 Red. masses --      1.5216                 1.9048                 4.7332
 Frc consts  --      0.6055                 0.7900                 2.0520
 IR Inten    --     35.2618                10.5029                 9.7288

                     46                     47                     48
                      A                      A                      A
 Frequencies --    876.0593               879.6075               894.9536
 Red. masses --      2.2172                 1.9855                 2.5597
 Frc consts  --      1.0026                 0.9051                 1.2079
 IR Inten    --      8.2130                 3.4399                 5.3525

                     49                     50                     51
                      A                      A                      A
 Frequencies --    909.0367               916.2895               920.3710
 Red. masses --      1.9657                 2.3836                 2.0986
 Frc consts  --      0.9570                 1.1791                 1.0474
 IR Inten    --     15.1476                31.3725                 6.7869

                     52                     53                     54
                      A                      A                      A
 Frequencies --    932.7921               954.6357               976.0642
 Red. masses --      3.6183                 2.6839                 1.3939
 Frc consts  --      1.8549                 1.4411                 0.7824
 IR Inten    --     27.5987                 2.7391                 2.3099

                     55                     56                     57
                      A                      A                      A
 Frequencies --    986.1675               998.0057              1022.7196
 Red. masses --      1.3710                 1.2790                 1.2630
 Frc consts  --      0.7856                 0.7506                 0.7783
 IR Inten    --      0.9887                 0.1409                12.6835

                     58                     59                     60
                      A                      A                      A
 Frequencies --   1037.0888              1056.4099              1105.0044
 Red. masses --      1.8769                 2.7239                 4.0514
 Frc consts  --      1.1894                 1.7911                 2.9147
 IR Inten    --      4.5395                 0.7206                 6.2978

                     61                     62                     63
                      A                      A                      A
 Frequencies --   1111.6027              1169.0690              1180.5249
 Red. masses --      1.7530                 1.7216                 2.1511
 Frc consts  --      1.2762                 1.3863                 1.7663
 IR Inten    --      0.2971                 0.1268                21.9366

                     64                     65                     66
                      A                      A                      A
 Frequencies --   1213.5962              1229.2402              1235.8274
 Red. masses --      1.3896                 1.4268                 1.5052
 Frc consts  --      1.2059                 1.2702                 1.3545
 IR Inten    --      6.2700                15.2923                15.5683

                     67                     68                     69
                      A                      A                      A
 Frequencies --   1252.0097              1263.5751              1270.9223
 Red. masses --      1.2420                 1.1901                 1.4725
 Frc consts  --      1.1471                 1.1196                 1.4014
 IR Inten    --     20.1712                 0.4338                 7.2231

                     70                     71                     72
                      A                      A                      A
 Frequencies --   1301.1277              1327.7442              1344.0924
 Red. masses --      1.5294                 1.6115                 1.5207
 Frc consts  --      1.5255                 1.6739                 1.6187
 IR Inten    --     24.0492                 4.6985                 7.3691

                     73                     74                     75
                      A                      A                      A
 Frequencies --   1379.6039              1386.5856              1410.1767
 Red. masses --      1.5598                 1.6727                 1.8993
 Frc consts  --      1.7492                 1.8948                 2.2253
 IR Inten    --     34.7771                13.5355                10.8934

                     76                     77                     78
                      A                      A                      A
 Frequencies --   1414.9289              1452.4686              1455.4215
 Red. masses --      1.6070                 3.3247                 1.8527
 Frc consts  --      1.8955                 4.1325                 2.3122
 IR Inten    --     15.9410                26.9239                11.3519

                     79                     80                     81
                      A                      A                      A
 Frequencies --   1478.0915              1552.4805              1566.7768
 Red. masses --      1.8065                 7.0778                 4.0154
 Frc consts  --      2.3254                10.0507                 5.8075
 IR Inten    --      7.6812                28.7941                13.6942

                     82                     83                     84
                      A                      A                      A
 Frequencies --   1601.5178              1613.1818              1620.3374
 Red. masses --      3.6876                 8.8239                 6.0206
 Frc consts  --      5.5726                13.5294                 9.3132
 IR Inten    --     27.7252                56.6048                29.5951

                     85                     86                     87
                      A                      A                      A
 Frequencies --   1624.8665              1643.6382              1664.2678
 Red. masses --      6.4299                 1.5432                 3.0308
 Frc consts  --     10.0021                 2.4564                 4.9460
 IR Inten    --     12.2872               110.2379                26.0998

                     88                     89                     90
                      A                      A                      A
 Frequencies --   1672.2444              1887.6323              1972.8029
 Red. masses --      5.3395                12.5247                11.8431
 Frc consts  --      8.7973                26.2938                27.1570
 IR Inten    --      4.7423               751.8633               570.3137

                     91                     92                     93
                      A                      A                      A
 Frequencies --   3098.3519              3120.2380              3124.3913
 Red. masses --      1.0826                 1.0860                 1.0837
 Frc consts  --      6.1235                 6.2296                 6.2331
 IR Inten    --      7.6866                 9.6457                12.7750

                     94                     95                     96
                      A                      A                      A
 Frequencies --   3128.6612              3134.0251              3147.2857
 Red. masses --      1.0843                 1.0826                 1.0855
 Frc consts  --      6.2534                 6.2651                 6.3354
 IR Inten    --     25.4401                 0.4602                 4.7209

                     97                     98                     99
                      A                      A                      A
 Frequencies --   3151.2569              3156.4371              3159.9638
 Red. masses --      1.0889                 1.0918                 1.0904
 Frc consts  --      6.3709                 6.4092                 6.4149
 IR Inten    --     19.7294                26.4411                14.7124

                    100                    101                    102
                      A                      A                      A
 Frequencies --   3162.1973              3164.5387              3171.6673
 Red. masses --      1.0880                 1.0901                 1.0938
 Frc consts  --      6.4099                 6.4316                 6.4830
 IR Inten    --     11.8567                16.6590                51.6713

                    103                    104                    105
                      A                      A                      A
 Frequencies --   3229.7806              3554.7482              3665.0176
 Red. masses --      1.0856                 1.0461                 1.0992
 Frc consts  --      6.6723                 7.7886                 8.6992
 IR Inten    --      1.7883                17.4655                 9.3977

 - Thermochemistry -
 -------------------
 Temperature   298.150 Kelvin.  Pressure   1.00000 Atm.
 Atom     1 has atomic number  7 and mass  14.00307

 Molecular mass:   285.11536 amu.
 Principal axes and moments of inertia in atomic units:
                           1         2         3
     Eigenvalues --  3684.14206********************
           X            0.99981  -0.01968   0.00160
           Y            0.01967   0.99980   0.00474
           Z           -0.00169  -0.00470   0.99999
 This molecule is an asymmetric top.
 Rotational symmetry number  1.
 Warning -- assumption of classical behavior for rotation
           may cause significant error
 Rotational temperatures (Kelvin)      0.02351     0.00865     0.00745
 Rotational constants (GHZ):           0.48987     0.18023     0.15533
 Zero-point vibrational energy     753098.2 (Joules/Mol)
                                  179.99478 (Kcal/Mol)
 Warning -- explicit consideration of  32 degrees of freedom as
           vibrations may cause significant error
 Vibrational temperatures:     56.43    71.59    85.52   117.01   140.04
          (Kelvin)            160.16   205.39   209.47   246.28   279.32
                              314.23   333.82   358.68   382.29   420.55
                              441.71   449.84   495.77   519.57   541.72
                              555.16   591.70   597.69   636.65   683.94
                              715.14   732.85   769.98   831.94   850.21
                              868.87   870.83   907.55   927.46   987.81
                             1038.52  1048.41  1094.19  1119.49  1129.05
                             1158.90  1174.46  1182.44  1207.16  1234.18
                             1260.45  1265.56  1287.64  1307.90  1318.34
                             1324.21  1342.08  1373.51  1404.34  1418.88
                             1435.91  1471.47  1492.14  1519.94  1589.85
                             1599.35  1682.03  1698.51  1746.09  1768.60
                             1778.08  1801.36  1818.00  1828.57  1872.03
                             1910.33  1933.85  1984.94  1994.99  2028.93
                             2035.77  2089.78  2094.03  2126.64  2233.67
                             2254.24  2304.23  2321.01  2331.30  2337.82
                             2364.83  2394.51  2405.99  2715.88  2838.42
                             4457.84  4489.33  4495.30  4501.45  4509.16
                             4528.24  4533.96  4541.41  4546.48  4549.70
                             4553.07  4563.32  4646.93  5114.49  5273.14

 Zero-point correction=                           0.286840 (Hartree/Particle)
 Thermal correction to Energy=                    0.306029
 Thermal correction to Enthalpy=                  0.306973
 Thermal correction to Gibbs Free Energy=         0.239987
 Sum of electronic and zero-point Energies=           -900.645576
 Sum of electronic and thermal Energies=              -900.626386
 Sum of electronic and thermal Enthalpies=            -900.625442
 Sum of electronic and thermal Free Energies=         -900.692429

                     E (Thermal)             CV                S
                      KCal/Mol        Cal/Mol-Kelvin    Cal/Mol-Kelvin
 Total                  192.036             76.101            140.985
 Electronic               0.000              0.000              0.000
 Translational            0.889              2.981             42.841
 Rotational               0.889              2.981             34.415
 Vibrational            190.259             70.139             63.729
 Vibration     1          0.594              1.981              5.298
 Vibration     2          0.595              1.978              4.827
 Vibration     3          0.597              1.974              4.476
 Vibration     4          0.600              1.962              3.859
 Vibration     5          0.603              1.951              3.507
 Vibration     6          0.607              1.940              3.246
 Vibration     7          0.616              1.910              2.767
 Vibration     8          0.617              1.907              2.729
 Vibration     9          0.626              1.878              2.423
 Vibration    10          0.635              1.848              2.188
 Vibration    11          0.646              1.813              1.972
 Vibration    12          0.653              1.792              1.863
 Vibration    13          0.662              1.764              1.736
 Vibration    14          0.672              1.736              1.624
 Vibration    15          0.688              1.688              1.461
 Vibration    16          0.697              1.660              1.378
 Vibration    17          0.701              1.650              1.348
 Vibration    18          0.723              1.586              1.191
 Vibration    19          0.735              1.552              1.117
 Vibration    20          0.747              1.520              1.053
 Vibration    21          0.755              1.500              1.016
 Vibration    22          0.775              1.446              0.922
 Vibration    23          0.779              1.437              0.908
 Vibration    24          0.802              1.377              0.819
 Vibration    25          0.832              1.305              0.723
 Vibration    26          0.853              1.257              0.666
 Vibration    27          0.865              1.229              0.635
 Vibration    28          0.890              1.172              0.576
 Vibration    29          0.935              1.078              0.489
 Vibration    30          0.948              1.051              0.466
 Vibration    31          0.962              1.024              0.443
 Vibration    32          0.964              1.021              0.441

 Optimization completed.
    -- Stationary point found.
 Normal termination of Gaussian 16 at Fri May 19 16:21:12 2023.
