 Gaussian 16, Revision A.03,
 Gaussian 16:  ES64L-G16RevA.03 25-Dec-2016

 -----------------------------
 # opt freq b3lyp/6-31g(2df,p)
 -----------------------------

 -------------------
 Title Card Required
 -------------------
 Symbolic Z-matrix:
 Charge =  0 Multiplicity = 1

 SCF Done:  E(RB3LYP) =  -494.256730987     A.U. after   28 cycles
 SCF Done:  E(RB3LYP) =  -494.373410187     A.U. after   23 cycles
 SCF Done:  E(RB3LYP) =  -494.510562053     A.U. after   25 cycles
 SCF Done:  E(RB3LYP) =  -494.562206471     A.U. after   57 cycles
 SCF Done:  E(RB3LYP) =  -494.718653376     A.U. after   20 cycles
 SCF Done:  E(RB3LYP) =  -494.844835779     A.U. after   16 cycles
 SCF Done:  E(RB3LYP) =  -494.920484604     A.U. after   16 cycles
 SCF Done:  E(RB3LYP) =  -494.938259432     A.U. after   16 cycles
 SCF Done:  E(RB3LYP) =  -495.045474607     A.U. after   15 cycles
 SCF Done:  E(RB3LYP) =  -495.053387983     A.U. after   15 cycles
 SCF Done:  E(RB3LYP) =  -495.195101214     A.U. after   11 cycles
 SCF Done:  E(RB3LYP) =  -495.195156304     A.U. after   11 cycles
 SCF Done:  E(RB3LYP) =  -495.195180924     A.U. after   10 cycles
 SCF Done:  E(RB3LYP) =  -495.195218524     A.U. after   10 cycles
 SCF Done:  E(RB3LYP) =  -495.195261794     A.U. after   11 cycles
 SCF Done:  E(RB3LYP) =  -495.195265197     A.U. after    9 cycles
 SCF Done:  E(RB3LYP) =  -495.195268195     A.U. after    8 cycles
 SCF Done:  E(RB3LYP) =  -495.195270463     A.U. after    9 cycles
 SCF Done:  E(RB3LYP) =  -495.195270787     A.U. after    8 cycles
 Optimization completed.
    -- Stationary point found.
 Normal termination of Gaussian 16 at Fri May 19 08:44:41 2023.

 ----------------------------------------------------------------------
 #N Geom=AllCheck Guess=TCheck SCRF=Check GenChk RB3LYP/6-31G(2df,p) Fr
 eq
 ----------------------------------------------------------------------

 Structure from the checkpoint file:  "NC1dCdCCdCdCNdCdCCdC1.chk"
 -------------------
 Title Card Required
 -------------------
 Charge =  0 Multiplicity = 1

                         Standard orientation:
 ---------------------------------------------------------------------
 Center     Atomic      Atomic             Coordinates (Angstroms)
 Number     Number       Type             X           Y           Z
 ---------------------------------------------------------------------
      1          7           0        2.968842    0.635810    0.456851
      2          6           0        1.905257    0.124432   -0.277584
      3          6           0        1.697070   -1.185386   -0.523708
      4          6           0        0.885829   -2.200147   -0.357175
      5          6           0       -0.186835   -2.083781    0.723885
      6          6           0       -1.370877   -1.612418    0.451223
      7          6           0       -2.454918   -1.018555   -0.009647
      8          7           0       -2.453856    0.335293   -0.394273
      9          6           0       -1.889280    1.335997   -0.020027
     10          6           0       -1.062887    2.345597    0.239984
     11          6           0        0.357530    2.041223    0.090202
     12          6           0        0.789072    0.979418   -0.634043
     13          1           0        3.721514   -0.017925    0.611493
     14          1           0        3.309168    1.531591    0.136857
     15          1           0        0.883626   -3.094293   -0.977040
     16          1           0        0.104964   -2.304434    1.749461
     17          1           0       -3.352399   -1.559071   -0.286869
     18          1           0       -1.403779    3.231842    0.759044
     19          1           0        1.024548    2.551101    0.780865
     20          1           0        0.087696    0.505180   -1.310504
 ---------------------------------------------------------------------

 SCF Done:  E(RB3LYP) =  -495.195270787     A.U. after    1 cycles

 The electronic state is 1-A.
 Alpha  occ. eigenvalues --  -14.36733 -14.34090 -10.24948 -10.23395 -10.23394
 Alpha  occ. eigenvalues --  -10.20189 -10.19643 -10.19496 -10.19438 -10.19173
 Alpha  occ. eigenvalues --  -10.17824 -10.16566  -0.95816  -0.91975  -0.81535
 Alpha  occ. eigenvalues --   -0.81067  -0.76034  -0.74667  -0.68810  -0.65999
 Alpha  occ. eigenvalues --   -0.58593  -0.57274  -0.54438  -0.51408  -0.49450
 Alpha  occ. eigenvalues --   -0.48542  -0.46973  -0.45899  -0.44853  -0.43342
 Alpha  occ. eigenvalues --   -0.40704  -0.39965  -0.37144  -0.35024  -0.34425
 Alpha  occ. eigenvalues --   -0.29508  -0.27652  -0.26031  -0.24191  -0.21150
 Alpha  occ. eigenvalues --   -0.18261
 Alpha virt. eigenvalues --   -0.03281  -0.02433  -0.01477   0.01086   0.04969
 Alpha virt. eigenvalues --    0.07694   0.09466   0.10398   0.13045   0.14144
 Alpha virt. eigenvalues --    0.14797   0.15122   0.15988   0.17422   0.19126

 Mulliken charges:
               1
     1  N   -0.571263
     2  C    0.194406
     3  C    0.018739
     4  C   -0.211121
     5  C   -0.337617
     6  C    0.353964
     7  C   -0.262371
     8  N   -0.256046
     9  C    0.393709
    10  C   -0.301731
    11  C   -0.078090
    12  C   -0.155713
    13  H    0.251784
    14  H    0.252512
    15  H    0.111315
    16  H    0.129015
    17  H    0.131063
    18  H    0.121947
    19  H    0.101382
    20  H    0.114117
 Sum of Mulliken charges =  -0.00000

 Dipole moment (field-independent basis, Debye):
    X=              1.3290    Y=              0.6875    Z=              1.0538  Tot=              1.8302
 Quadrupole moment (field-independent basis, Debye-Ang):
   XX=            -58.7065   YY=            -63.7057   ZZ=            -70.5903
   XY=              3.2759   XZ=              0.7145   YZ=              1.4295

  Exact polarizability: 150.031  -0.416 156.831   4.224   8.017  69.251
 Approx polarizability: 275.190  -5.268 312.083   8.807  22.427 121.182

                      1                      2                      3
                      A                      A                      A
 Frequencies --     94.3566               129.7185               149.9165
 Red. masses --      4.9907                 3.5893                 5.2176
 Frc consts  --      0.0262                 0.0356                 0.0691
 IR Inten    --      2.4906                 4.3828                 6.1418

                      4                      5                      6
                      A                      A                      A
 Frequencies --    166.0016               183.7518               257.7574
 Red. masses --      5.7966                 4.2076                 3.4502
 Frc consts  --      0.0941                 0.0837                 0.1351
 IR Inten    --      1.0415                 5.3020                 0.8415

                      7                      8                      9
                      A                      A                      A
 Frequencies --    272.2577               312.7439               336.1546
 Red. masses --      3.0149                 2.8806                 3.5151
 Frc consts  --      0.1317                 0.1660                 0.2340
 IR Inten    --     14.9237                11.6467                 3.2138

                     10                     11                     12
                      A                      A                      A
 Frequencies --    364.4054               418.4731               461.3303
 Red. masses --      1.2404                 4.2905                 3.2363
 Frc consts  --      0.0970                 0.4427                 0.4058
 IR Inten    --     27.2439                 3.6068                19.5896

                     13                     14                     15
                      A                      A                      A
 Frequencies --    522.1212               533.2440               556.3789
 Red. masses --      5.2248                 4.5158                 3.7817
 Frc consts  --      0.8392                 0.7566                 0.6897
 IR Inten    --      9.2855                18.9033                48.8174

                     16                     17                     18
                      A                      A                      A
 Frequencies --    601.4250               615.7282               638.4785
 Red. masses --      2.6620                 3.7904                 4.4507
 Frc consts  --      0.5673                 0.8467                 1.0690
 IR Inten    --     86.2042                22.6744               110.9608

                     19                     20                     21
                      A                      A                      A
 Frequencies --    657.0314               674.8617               739.5980
 Red. masses --      2.9594                 3.7225                 1.6695
 Frc consts  --      0.7527                 0.9989                 0.5381
 IR Inten    --     40.6022                42.7769                52.8606

                     22                     23                     24
                      A                      A                      A
 Frequencies --    782.7279               815.2199               835.3333
 Red. masses --      1.9979                 1.7029                 1.8874
 Frc consts  --      0.7212                 0.6668                 0.7759
 IR Inten    --     64.0046                29.6869                39.0037

                     25                     26                     27
                      A                      A                      A
 Frequencies --    857.2139               887.4493               908.5972
 Red. masses --      2.2583                 1.5320                 3.9195
 Frc consts  --      0.9777                 0.7109                 1.9065
 IR Inten    --     14.6745                19.9751                 5.3602

                     28                     29                     30
                      A                      A                      A
 Frequencies --    945.7584               991.5723              1039.5556
 Red. masses --      3.9891                 1.3115                 1.8679
 Frc consts  --      2.1023                 0.7597                 1.1893
 IR Inten    --     10.4084                23.1260                12.0475

                     31                     32                     33
                      A                      A                      A
 Frequencies --   1084.5395              1117.4987              1213.8799
 Red. masses --      1.8464                 1.5731                 1.6399
 Frc consts  --      1.2796                 1.1574                 1.4237
 IR Inten    --      6.1190                 1.9892                 9.3086

                     34                     35                     36
                      A                      A                      A
 Frequencies --   1248.6207              1277.3187              1290.4346
 Red. masses --      1.2603                 1.3724                 1.3347
 Frc consts  --      1.1577                 1.3193                 1.3095
 IR Inten    --      2.9524                 4.3756                12.7020

                     37                     38                     39
                      A                      A                      A
 Frequencies --   1331.0667              1372.4516              1395.0170
 Red. masses --      1.4720                 3.6500                 2.0212
 Frc consts  --      1.5366                 4.0507                 2.3175
 IR Inten    --     15.6802                69.0944                21.1181

                     40                     41                     42
                      A                      A                      A
 Frequencies --   1418.4765              1440.1545              1611.5274
 Red. masses --      3.5426                 2.8520                 3.9954
 Frc consts  --      4.1996                 3.4852                 6.1134
 IR Inten    --     38.3939                48.1315                26.4381

                     43                     44                     45
                      A                      A                      A
 Frequencies --   1651.8193              1886.7999              1987.7223
 Red. masses --      1.1646                10.5207                10.5315
 Frc consts  --      1.8722                22.0672                24.5161
 IR Inten    --     57.5195               100.3811                 2.3925

                     46                     47                     48
                      A                      A                      A
 Frequencies --   2108.2184              3129.4110              3130.4810
 Red. masses --     11.7668                 1.0878                 1.0891
 Frc consts  --     30.8135                 6.2766                 6.2885
 IR Inten    --    232.5603                 5.4354                34.3035

                     49                     50                     51
                      A                      A                      A
 Frequencies --   3157.5929              3187.8894              3194.8791
 Red. masses --      1.0877                 1.0885                 1.0866
 Frc consts  --      6.3898                 6.5174                 6.5350
 IR Inten    --     11.2629                 8.4427                 2.6328

                     52                     53                     54
                      A                      A                      A
 Frequencies --   3208.7355              3563.1446              3665.5699
 Red. masses --      1.0893                 1.0478                 1.0972
 Frc consts  --      6.6078                 7.8375                 8.6863
 IR Inten    --      1.9369                19.0171                17.4519

 - Thermochemistry -
 -------------------
 Temperature   298.150 Kelvin.  Pressure   1.00000 Atm.
 Atom     1 has atomic number  7 and mass  14.00307

 Molecular mass:   156.06875 amu.
 Principal axes and moments of inertia in atomic units:
                           1         2         3
     Eigenvalues --  1416.401161888.476833072.16194
           X            0.99917   0.04030   0.00582
           Y           -0.04036   0.99913   0.01035
           Z           -0.00540  -0.01058   0.99993
 This molecule is an asymmetric top.
 Rotational symmetry number  1.
 Warning -- assumption of classical behavior for rotation
           may cause significant error
 Rotational temperatures (Kelvin)      0.06115     0.04586     0.02819
 Rotational constants (GHZ):           1.27417     0.95566     0.58745
 Zero-point vibrational energy     397294.2 (Joules/Mol)
                                   94.95560 (Kcal/Mol)
 Warning -- explicit consideration of  17 degrees of freedom as
           vibrations may cause significant error
 Vibrational temperatures:    135.76   186.64   215.70   238.84   264.38
          (Kelvin)            370.86   391.72   449.97   483.65   524.30
                              602.09   663.75   751.22   767.22   800.51
                              865.32   885.90   918.63   945.32   970.98
                             1064.12  1126.17  1172.92  1201.86  1233.34
                             1276.84  1307.27  1360.74  1426.65  1495.69
                             1560.41  1607.83  1746.50  1796.49  1837.78
                             1856.65  1915.11  1974.65  2007.12  2040.87
                             2072.06  2318.63  2376.60  2714.68  2859.89
                             3033.26  4502.52  4504.06  4543.07  4586.66
                             4596.72  4616.65  5126.57  5273.94

 Zero-point correction=                           0.151321 (Hartree/Particle)
 Thermal correction to Energy=                    0.162091
 Thermal correction to Enthalpy=                  0.163035
 Thermal correction to Gibbs Free Energy=         0.115648
 Sum of electronic and zero-point Energies=           -495.043949
 Sum of electronic and thermal Energies=              -495.033180
 Sum of electronic and thermal Enthalpies=            -495.032236
 Sum of electronic and thermal Free Energies=         -495.079623

                     E (Thermal)             CV                S
                      KCal/Mol        Cal/Mol-Kelvin    Cal/Mol-Kelvin
 Total                  101.713             42.109             99.734
 Electronic               0.000              0.000              0.000
 Translational            0.889              2.981             41.045
 Rotational               0.889              2.981             30.486
 Vibrational             99.936             36.147             28.202
 Vibration     1          0.603              1.953              3.568
 Vibration     2          0.612              1.924              2.950
 Vibration     3          0.618              1.903              2.673
 Vibration     4          0.624              1.884              2.480
 Vibration     5          0.631              1.862              2.290
 Vibration     6          0.667              1.750              1.677
 Vibration     7          0.675              1.724              1.582
 Vibration     8          0.701              1.649              1.348
 Vibration     9          0.717              1.603              1.230
 Vibration    10          0.738              1.546              1.103
 Vibration    11          0.781              1.430              0.897
 Vibration    12          0.819              1.336              0.762
 Vibration    13          0.877              1.201              0.605
 Vibration    14          0.888              1.176              0.580
 Vibration    15          0.912              1.126              0.531
 Vibration    16          0.960              1.029              0.447
 Vibration    17          0.975              0.999              0.423

                           ! Non-Optimized Parameters !
 Normal termination of Gaussian 16 at Fri May 19 09:30:58 2023.
