 Gaussian 16, Revision A.03,
 Gaussian 16:  ES64L-G16RevA.03 25-Dec-2016

 -----------------------------
 # opt freq b3lyp/6-31g(2df,p)
 -----------------------------

 -------------------
 Title Card Required
 -------------------
 Symbolic Z-matrix:
 Charge =  0 Multiplicity = 1

 SCF Done:  E(RB3LYP) =  -909.815770718     A.U. after   15 cycles
 SCF Done:  E(RB3LYP) =  -909.825205427     A.U. after   13 cycles
 SCF Done:  E(RB3LYP) =  -909.828725098     A.U. after   13 cycles
 SCF Done:  E(RB3LYP) =  -909.830366075     A.U. after   13 cycles
 SCF Done:  E(RB3LYP) =  -909.830553396     A.U. after   13 cycles
 SCF Done:  E(RB3LYP) =  -909.830994426     A.U. after   12 cycles
 SCF Done:  E(RB3LYP) =  -909.831163238     A.U. after   11 cycles
 SCF Done:  E(RB3LYP) =  -909.831266549     A.U. after   11 cycles
 SCF Done:  E(RB3LYP) =  -909.831384221     A.U. after   12 cycles
 SCF Done:  E(RB3LYP) =  -909.831448473     A.U. after   11 cycles
 SCF Done:  E(RB3LYP) =  -909.833128282     A.U. after   11 cycles
 SCF Done:  E(RB3LYP) =  -909.833320804     A.U. after   12 cycles
 SCF Done:  E(RB3LYP) =  -909.833264298     A.U. after   11 cycles
 SCF Done:  E(RB3LYP) =  -909.833362150     A.U. after   12 cycles
 SCF Done:  E(RB3LYP) =  -909.833384265     A.U. after   10 cycles
 SCF Done:  E(RB3LYP) =  -909.833389501     A.U. after   10 cycles
 SCF Done:  E(RB3LYP) =  -909.833390374     A.U. after    9 cycles
 SCF Done:  E(RB3LYP) =  -909.833390638     A.U. after    8 cycles
 SCF Done:  E(RB3LYP) =  -909.833390683     A.U. after    7 cycles
 Optimization completed.
    -- Stationary point found.
 Normal termination of Gaussian 16 at Thu May 18 09:40:20 2023.

 ----------------------------------------------------------------------
 #N Geom=AllCheck Guess=TCheck SCRF=Check GenChk RB3LYP/6-31G(2df,p) Fr
 eq
 ----------------------------------------------------------------------

 Structure from the checkpoint file:  "NC1SCdCCdC1NdCNCdO.chk"
 -------------------
 Title Card Required
 -------------------
 Charge =  0 Multiplicity = 1

                         Standard orientation:
 ---------------------------------------------------------------------
 Center     Atomic      Atomic             Coordinates (Angstroms)
 Number     Number       Type             X           Y           Z
 ---------------------------------------------------------------------
      1          7           0        1.050928   -1.437098    1.446774
      2          6           0        0.988099   -0.849959    0.105985
      3         16           0        2.604452   -1.052440   -0.744231
      4          6           0        3.436578    0.400663   -0.263924
      5          6           0        2.808078    1.516094    0.162427
      6          6           0        1.377089    1.633637    0.208300
      7          6           0        0.511297    0.595523    0.076433
      8          7           0       -0.847800    0.904702    0.062515
      9          6           0       -1.771143    0.035004   -0.057414
     10          7           0       -3.095642    0.427383   -0.072623
     11          6           0       -4.175685   -0.415888   -0.199655
     12          8           0       -5.323837   -0.047298   -0.209843
     13          1           0        0.119252   -1.465524    1.855060
     14          1           0        1.608035   -0.834722    2.046974
     15          1           0        0.332776   -1.486738   -0.494522
     16          1           0        4.513065    0.347090   -0.378874
     17          1           0        3.404237    2.384881    0.422168
     18          1           0        0.941257    2.620074    0.328063
     19          1           0       -1.644272   -1.046855   -0.162901
     20          1           0       -3.285050    1.419089    0.012195
     21          1           0       -3.868121   -1.475212   -0.291299
 ---------------------------------------------------------------------

 SCF Done:  E(RB3LYP) =  -909.833390683     A.U. after    1 cycles

 The electronic state is 1-A.
 Alpha  occ. eigenvalues --  -88.89150 -19.13528 -14.39338 -14.33922 -14.32893
 Alpha  occ. eigenvalues --  -10.30497 -10.28075 -10.25981 -10.22688 -10.21834
 Alpha  occ. eigenvalues --  -10.19243 -10.19045  -7.95394  -5.91838  -5.91470
 Alpha  occ. eigenvalues --   -5.91044  -1.06247  -0.98698  -0.92883  -0.89830
 Alpha  occ. eigenvalues --   -0.83396  -0.76641  -0.74236  -0.67463  -0.65626
 Alpha  occ. eigenvalues --   -0.63485  -0.59888  -0.53921  -0.53015  -0.51376
 Alpha  occ. eigenvalues --   -0.49809  -0.48151  -0.46690  -0.45535  -0.44714
 Alpha  occ. eigenvalues --   -0.43763  -0.42611  -0.39354  -0.38462  -0.35667
 Alpha  occ. eigenvalues --   -0.34612  -0.34140  -0.31007  -0.29184  -0.27728
 Alpha  occ. eigenvalues --   -0.25285  -0.24710  -0.20141
 Alpha virt. eigenvalues --   -0.06190  -0.00436   0.02672   0.04206   0.05704
 Alpha virt. eigenvalues --    0.07070   0.07871   0.09237   0.09981   0.11226
 Alpha virt. eigenvalues --    0.12019   0.15068   0.15921   0.17240   0.18819

 Mulliken charges:
               1
     1  N   -0.496886
     2  C   -0.109519
     3  S   -0.074158
     4  C   -0.133497
     5  C   -0.093420
     6  C   -0.135542
     7  C    0.294979
     8  N   -0.327607
     9  C    0.096278
    10  N   -0.289096
    11  C    0.175255
    12  O   -0.304211
    13  H    0.231168
    14  H    0.242443
    15  H    0.119398
    16  H    0.128082
    17  H    0.100779
    18  H    0.100156
    19  H    0.111859
    20  H    0.274091
    21  H    0.089449
 Sum of Mulliken charges =  -0.00000

 Dipole moment (field-independent basis, Debye):
    X=              1.5814    Y=              0.3089    Z=              0.9804  Tot=              1.8861
 Quadrupole moment (field-independent basis, Debye-Ang):
   XX=            -93.4445   YY=            -75.9160   ZZ=            -76.3230
   XY=              7.0188   XZ=              0.1046   YZ=              1.8148

  Exact polarizability: 230.812  14.018 113.350  -4.707   7.565  70.350
 Approx polarizability: 369.528  32.706 201.063 -10.531  19.487 117.538

                      1                      2                      3
                      A                      A                      A
 Frequencies --     46.8310                80.5543                86.9083
 Red. masses --      5.2828                 6.0152                 4.9086
 Frc consts  --      0.0068                 0.0230                 0.0218
 IR Inten    --      0.0695                 2.0686                 0.2601

                      4                      5                      6
                      A                      A                      A
 Frequencies --     90.6036               146.1518               185.0913
 Red. masses --      2.3488                 3.8425                 1.2357
 Frc consts  --      0.0114                 0.0484                 0.0249
 IR Inten    --      7.9609                 1.2861                35.7708

                      7                      8                      9
                      A                      A                      A
 Frequencies --    222.4462               258.1374               279.2574
 Red. masses --      6.3916                 3.8053                 3.8697
 Frc consts  --      0.1863                 0.1494                 0.1778
 IR Inten    --      2.4782                 2.8774                 2.3002

                     10                     11                     12
                      A                      A                      A
 Frequencies --    299.1566               334.9042               345.9767
 Red. masses --      3.3629                 4.5667                 5.0821
 Frc consts  --      0.1773                 0.3018                 0.3584
 IR Inten    --      1.5859                 9.4947                13.7820

                     13                     14                     15
                      A                      A                      A
 Frequencies --    454.2209               457.3457               524.9924
 Red. masses --      6.1627                 6.5924                 3.9329
 Frc consts  --      0.7491                 0.8124                 0.6387
 IR Inten    --     17.9295                 3.0639                 2.8294

                     16                     17                     18
                      A                      A                      A
 Frequencies --    556.1919               658.4678               669.6262
 Red. masses --      7.3415                 4.5138                 3.7311
 Frc consts  --      1.3381                 1.1531                 0.9857
 IR Inten    --      4.7159                25.9006                 3.9583

                     19                     20                     21
                      A                      A                      A
 Frequencies --    682.8783               715.5574               729.0221
 Red. masses --      3.9021                 1.4002                 1.2844
 Frc consts  --      1.0721                 0.4224                 0.4022
 IR Inten    --     19.3850                44.5751                93.1752

                     22                     23                     24
                      A                      A                      A
 Frequencies --    762.4939               796.5790               869.9872
 Red. masses --      4.2315                 2.3868                 3.2235
 Frc consts  --      1.4495                 0.8923                 1.4375
 IR Inten    --     22.3545                71.5855                90.3908

                     25                     26                     27
                      A                      A                      A
 Frequencies --    922.7171               935.6232               952.0193
 Red. masses --      1.3807                 2.9615                 1.3504
 Frc consts  --      0.6926                 1.5274                 0.7211
 IR Inten    --     21.7752                43.0773                 3.0743

                     28                     29                     30
                      A                      A                      A
 Frequencies --    967.2934              1041.7807              1066.4522
 Red. masses --      1.5108                 1.5584                 2.5040
 Frc consts  --      0.8329                 0.9965                 1.6779
 IR Inten    --      3.8079                 0.5160                20.9282

                     31                     32                     33
                      A                      A                      A
 Frequencies --   1067.0548              1151.4894              1182.8341
 Red. masses --      1.9198                 1.8806                 1.5344
 Frc consts  --      1.2879                 1.4692                 1.2649
 IR Inten    --      1.6805                30.3972                15.6003

                     34                     35                     36
                      A                      A                      A
 Frequencies --   1190.5450              1228.9109              1263.6230
 Red. masses --      1.1897                 2.0026                 4.4438
 Frc consts  --      0.9936                 1.7819                 4.1806
 IR Inten    --     16.6228               508.1448                35.6969

                     37                     38                     39
                      A                      A                      A
 Frequencies --   1294.2666              1332.5010              1353.5766
 Red. masses --      1.5252                 1.3343                 1.5171
 Frc consts  --      1.5053                 1.3959                 1.6377
 IR Inten    --      6.4538                40.0835                 5.2763

                     40                     41                     42
                      A                      A                      A
 Frequencies --   1380.0999              1397.5925              1427.8030
 Red. masses --      1.2327                 1.6702                 1.3057
 Frc consts  --      1.3833                 1.9221                 1.5683
 IR Inten    --      6.1191                 2.5059                11.9856

                     43                     44                     45
                      A                      A                      A
 Frequencies --   1476.6622              1573.7438              1647.9944
 Red. masses --      2.0203                 7.5739                 1.5176
 Frc consts  --      2.5955                11.0519                 2.4283
 IR Inten    --     45.5122                27.4733                35.3808

                     46                     47                     48
                      A                      A                      A
 Frequencies --   1653.5533              1719.1950              1827.6025
 Red. masses --      2.3259                 5.8184                 7.9633
 Frc consts  --      3.7470                10.1323                15.6714
 IR Inten    --     35.3377               462.6323               707.7844

                     49                     50                     51
                      A                      A                      A
 Frequencies --   2953.4432              3061.0591              3073.9574
 Red. masses --      1.0854                 1.0851                 1.0841
 Frc consts  --      5.5781                 5.9905                 6.0357
 IR Inten    --     51.8329                17.4892                21.8518

                     52                     53                     54
                      A                      A                      A
 Frequencies --   3172.8397              3188.5803              3202.4705
 Red. masses --      1.0843                 1.0892                 1.0957
 Frc consts  --      6.4311                 6.5243                 6.6211
 IR Inten    --     11.9417                 4.9545                 6.9294

                     55                     56                     57
                      A                      A                      A
 Frequencies --   3476.7640              3560.6091              3584.1903
 Red. masses --      1.0490                 1.0921                 1.0759
 Frc consts  --      7.4707                 8.1576                 8.1435
 IR Inten    --      0.5504                 2.1102                44.2878

 - Thermochemistry -
 -------------------
 Temperature   298.150 Kelvin.  Pressure   1.00000 Atm.
 Atom     1 has atomic number  7 and mass  14.00307

 Molecular mass:   183.04663 amu.
 Principal axes and moments of inertia in atomic units:
                           1         2         3
     Eigenvalues --   845.108075263.934455690.20931
           X            0.99994   0.01034   0.00336
           Y           -0.01030   0.99989  -0.01046
           Z           -0.00346   0.01043   0.99994
 This molecule is an asymmetric top.
 Rotational symmetry number  1.
 Warning -- assumption of classical behavior for rotation
           may cause significant error
 Rotational temperatures (Kelvin)      0.10249     0.01645     0.01522
 Rotational constants (GHZ):           2.13552     0.34285     0.31717
 Zero-point vibrational energy     422175.5 (Joules/Mol)
                                  100.90236 (Kcal/Mol)
 Warning -- explicit consideration of  16 degrees of freedom as
           vibrations may cause significant error
 Vibrational temperatures:     67.38   115.90   125.04   130.36   210.28
          (Kelvin)            266.31   320.05   371.40   401.79   430.42
                              481.85   497.78   653.52   658.02   755.35
                              800.24   947.39   963.44   982.51  1029.53
                             1048.90  1097.06  1146.10  1251.72  1327.58
                             1346.15  1369.74  1391.72  1498.89  1534.39
                             1535.25  1656.74  1701.83  1712.93  1768.13
                             1818.07  1862.16  1917.17  1947.49  1985.66
                             2010.82  2054.29  2124.59  2264.27  2371.10
                             2379.09  2473.54  2629.51  4249.35  4404.18
                             4422.74  4565.01  4587.66  4607.64  5002.29
                             5122.92  5156.85

 Zero-point correction=                           0.160798 (Hartree/Particle)
 Thermal correction to Energy=                    0.172753
 Thermal correction to Enthalpy=                  0.173698
 Thermal correction to Gibbs Free Energy=         0.121781
 Sum of electronic and zero-point Energies=           -909.672593
 Sum of electronic and thermal Energies=              -909.660637
 Sum of electronic and thermal Enthalpies=            -909.659693
 Sum of electronic and thermal Free Energies=         -909.711610

                     E (Thermal)             CV                S
                      KCal/Mol        Cal/Mol-Kelvin    Cal/Mol-Kelvin
 Total                  108.404             43.634            109.269
 Electronic               0.000              0.000              0.000
 Translational            0.889              2.981             41.520
 Rotational               0.889              2.981             31.604
 Vibrational            106.627             37.672             36.144
 Vibration     1          0.595              1.979              4.947
 Vibration     2          0.600              1.962              3.877
 Vibration     3          0.601              1.958              3.728
 Vibration     4          0.602              1.956              3.647
 Vibration     5          0.617              1.907              2.722
 Vibration     6          0.631              1.860              2.276
 Vibration     7          0.648              1.807              1.939
 Vibration     8          0.667              1.749              1.674
 Vibration     9          0.680              1.712              1.538
 Vibration    10          0.692              1.675              1.422
 Vibration    11          0.716              1.606              1.236
 Vibration    12          0.724              1.583              1.184
 Vibration    13          0.813              1.352              0.783
 Vibration    14          0.815              1.345              0.774
 Vibration    15          0.880              1.195              0.598
 Vibration    16          0.912              1.126              0.531

 Optimization completed.
    -- Stationary point found.
 Normal termination of Gaussian 16 at Thu May 18 10:31:44 2023.
