 Gaussian 16, Revision A.03,
 Gaussian 16:  ES64L-G16RevA.03 25-Dec-2016

 -----------------------------
 # opt freq b3lyp/6-31g(2df,p)
 -----------------------------

 -------------------
 Title Card Required
 -------------------
 Symbolic Z-matrix:
 Charge =  0 Multiplicity = 1

 SCF Done:  E(RB3LYP) =  -687.714296544     A.U. after   29 cycles
 SCF Done:  E(RB3LYP) =  -687.804515730     A.U. after   21 cycles
 SCF Done:  E(RB3LYP) =  -687.855909091     A.U. after   23 cycles
 SCF Done:  E(RB3LYP) =  -687.967563062     A.U. after   20 cycles
 SCF Done:  E(RB3LYP) =  -688.057001077     A.U. after   18 cycles
 SCF Done:  E(RB3LYP) =  -688.102965507     A.U. after   17 cycles
 SCF Done:  E(RB3LYP) =  -688.145446624     A.U. after   18 cycles
 SCF Done:  E(RB3LYP) =  -688.164775604     A.U. after   18 cycles
 SCF Done:  E(RB3LYP) =  -688.193868651     A.U. after   17 cycles
 SCF Done:  E(RB3LYP) =  -688.224492383     A.U. after   16 cycles
 SCF Done:  E(RB3LYP) =  -688.367186728     A.U. after   14 cycles
 SCF Done:  E(RB3LYP) =  -688.367811674     A.U. after   13 cycles
 SCF Done:  E(RB3LYP) =  -688.367864218     A.U. after   11 cycles
 SCF Done:  E(RB3LYP) =  -688.367885456     A.U. after   11 cycles
 SCF Done:  E(RB3LYP) =  -688.367893427     A.U. after    9 cycles
 SCF Done:  E(RB3LYP) =  -688.367896194     A.U. after    9 cycles
 SCF Done:  E(RB3LYP) =  -688.367897222     A.U. after    9 cycles
 SCF Done:  E(RB3LYP) =  -688.367897555     A.U. after    8 cycles
 SCF Done:  E(RB3LYP) =  -688.367897674     A.U. after    8 cycles
 Optimization completed.
    -- Stationary point found.
 Normal termination of Gaussian 16 at Sat May 20 08:35:20 2023.

 ----------------------------------------------------------------------
 #N Geom=AllCheck Guess=TCheck SCRF=Check GenChk RB3LYP/6-31G(2df,p) Fr
 eq
 ----------------------------------------------------------------------

 Structure from the checkpoint file:  "NCC1CdC2CdCC3dC2CCNdCCqdOrC31.chk"
 -------------------
 Title Card Required
 -------------------
 Charge =  0 Multiplicity = 1

                         Standard orientation:
 ---------------------------------------------------------------------
 Center     Atomic      Atomic             Coordinates (Angstroms)
 Number     Number       Type             X           Y           Z
 ---------------------------------------------------------------------
      1          7           0        3.496507   -0.087997    0.539843
      2          6           0        2.757271    1.163832    0.700834
      3          6           0        1.470606    1.124924   -0.134903
      4          6           0        0.515269    2.283722    0.055350
      5          6           0       -0.752806    1.868737    0.224007
      6          6           0       -2.009384    2.394074   -0.248983
      7          6           0       -2.698865    1.364676   -0.861758
      8          6           0       -1.856304    0.208592   -0.988532
      9          6           0       -0.882645    0.351281    0.164222
     10          6           0       -1.572451   -0.383574    1.348024
     11          6           0       -1.898420   -1.861479    1.014096
     12          7           0       -1.002347   -2.782870    0.337891
     13          6           0        0.008803   -2.572671   -0.396647
     14          6           0        0.781592   -1.319453   -0.768482
     15          8           0        1.547314   -1.362556   -1.706548
     16          6           0        0.595643   -0.123637    0.123045
     17          1           0        4.394155   -0.036506    1.009618
     18          1           0        3.678661   -0.263704   -0.444015
     19          1           0        3.324124    2.070132    0.423953
     20          1           0        2.494770    1.270492    1.761933
     21          1           0        1.769360    1.123638   -1.196149
     22          1           0        0.798956    3.302382   -0.189232
     23          1           0       -2.272186    3.448064   -0.268561
     24          1           0       -3.647231    1.486793   -1.373207
     25          1           0       -2.517244    0.101930    1.612334
     26          1           0       -0.917234   -0.321087    2.222049
     27          1           0       -2.798739   -1.877957    0.383483
     28          1           0       -2.190379   -2.360952    1.946068
     29          1           0        0.450869   -3.447413   -0.886249
     30          1           0        0.844642   -0.493436    1.124580
 ---------------------------------------------------------------------

 SCF Done:  E(RB3LYP) =  -688.367897674     A.U. after    1 cycles

 The electronic state is 1-A.
 Alpha  occ. eigenvalues --  -19.13286 -14.33152 -14.30840 -10.26586 -10.23800
 Alpha  occ. eigenvalues --  -10.22180 -10.21939 -10.21037 -10.20952 -10.20531
 Alpha  occ. eigenvalues --  -10.20185 -10.20121 -10.20114 -10.20112 -10.19899
 Alpha  occ. eigenvalues --  -10.19223  -1.04070  -0.91871  -0.89997  -0.88024
 Alpha  occ. eigenvalues --   -0.81831  -0.78688  -0.75041  -0.71909  -0.68239
 Alpha  occ. eigenvalues --   -0.66415  -0.63632  -0.61498  -0.57366  -0.54965
 Alpha  occ. eigenvalues --   -0.53632  -0.50589  -0.49213  -0.48770  -0.47163
 Alpha  occ. eigenvalues --   -0.46661  -0.45190  -0.44791  -0.44179  -0.42342
 Alpha  occ. eigenvalues --   -0.41792  -0.41065  -0.39839  -0.38198  -0.37815
 Alpha  occ. eigenvalues --   -0.36978  -0.35232  -0.34946  -0.33710  -0.33430
 Alpha  occ. eigenvalues --   -0.31274  -0.29512  -0.27429  -0.25718  -0.23766
 Alpha  occ. eigenvalues --   -0.22182  -0.19743
 Alpha virt. eigenvalues --   -0.10004  -0.05435  -0.01313   0.04778   0.05966
 Alpha virt. eigenvalues --    0.08668   0.09635   0.10623   0.11550   0.12381
 Alpha virt. eigenvalues --    0.13908   0.14382   0.14757   0.15531   0.15869

 Mulliken charges:
               1
     1  N   -0.512294
     2  C   -0.167830
     3  C   -0.067817
     4  C   -0.210743
     5  C    0.153266
     6  C   -0.121761
     7  C   -0.103001
     8  C   -0.193583
     9  C    0.218411
    10  C   -0.296694
    11  C   -0.142518
    12  N   -0.187135
    13  C   -0.029484
    14  C    0.377503
    15  O   -0.336607
    16  C   -0.186299
    17  H    0.227384
    18  H    0.240740
    19  H    0.080460
    20  H    0.097412
    21  H    0.108438
    22  H    0.106145
    23  H    0.127369
    24  H    0.108689
    25  H    0.107622
    26  H    0.114046
    27  H    0.144651
    28  H    0.116995
    29  H    0.117875
    30  H    0.108763
 Sum of Mulliken charges =  -0.00000

 Dipole moment (field-independent basis, Debye):
    X=             -0.1961    Y=              4.3863    Z=              2.6106  Tot=              5.1081
 Quadrupole moment (field-independent basis, Debye-Ang):
   XX=            -82.8335   YY=            -92.5704   ZZ=            -97.6392
   XY=             -1.6542   XZ=             -0.1438   YZ=             -3.8092

  Exact polarizability: 179.214   4.904 158.932  -1.139   3.209 111.223
 Approx polarizability: 296.931  32.567 264.680  -6.007  21.361 202.856

                      1                      2                      3
                      A                      A                      A
 Frequencies --     64.6756                81.4489                99.5261
 Red. masses --      4.1032                 5.6357                 4.3448
 Frc consts  --      0.0101                 0.0220                 0.0254
 IR Inten    --      3.1854                 1.6806                 0.7876

                      4                      5                      6
                      A                      A                      A
 Frequencies --    118.8471               143.5677               181.1392
 Red. masses --      3.2524                 3.2343                 2.8901
 Frc consts  --      0.0271                 0.0393                 0.0559
 IR Inten    --      0.8675                 1.3866                 1.1712

                      7                      8                      9
                      A                      A                      A
 Frequencies --    195.9012               239.5025               255.4273
 Red. masses --      4.4713                 3.4864                 3.8032
 Frc consts  --      0.1011                 0.1178                 0.1462
 IR Inten    --      4.0703                23.5777                 6.3580

                     10                     11                     12
                      A                      A                      A
 Frequencies --    278.1761               295.4097               350.1343
 Red. masses --      1.1920                 4.1347                 5.7945
 Frc consts  --      0.0543                 0.2126                 0.4185
 IR Inten    --     48.3896                22.9823                23.5476

                     13                     14                     15
                      A                      A                      A
 Frequencies --    360.4728               392.8014               407.3511
 Red. masses --      3.6322                 4.2836                 4.1607
 Frc consts  --      0.2781                 0.3894                 0.4068
 IR Inten    --     10.6386                17.4737                13.0078

                     16                     17                     18
                      A                      A                      A
 Frequencies --    415.6956               443.8760               512.6315
 Red. masses --      4.2226                 3.0345                 3.6319
 Frc consts  --      0.4299                 0.3523                 0.5623
 IR Inten    --     13.0835                17.2941                10.1736

                     19                     20                     21
                      A                      A                      A
 Frequencies --    543.1943               581.1254               597.5972
 Red. masses --      3.4975                 3.2642                 4.4413
 Frc consts  --      0.6080                 0.6495                 0.9345
 IR Inten    --      8.2618                12.2776                 1.3844

                     22                     23                     24
                      A                      A                      A
 Frequencies --    655.4981               686.3108               724.1113
 Red. masses --      3.9404                 4.4547                 4.5733
 Frc consts  --      0.9976                 1.2362                 1.4128
 IR Inten    --      9.1062                27.8344                38.9385

                     25                     26                     27
                      A                      A                      A
 Frequencies --    748.8798               792.8816               807.8569
 Red. masses --      3.3696                 2.6146                 2.4036
 Frc consts  --      1.1134                 0.9684                 0.9242
 IR Inten    --      6.7800                11.5849                 3.2602

                     28                     29                     30
                      A                      A                      A
 Frequencies --    830.9296               841.6971               863.9831
 Red. masses --      1.4441                 1.4069                 2.8614
 Frc consts  --      0.5874                 0.5873                 1.2585
 IR Inten    --     47.0092                68.3519                 6.3981

                     31                     32                     33
                      A                      A                      A
 Frequencies --    894.5325               926.8159               940.6236
 Red. masses --      1.5271                 2.1622                 2.0170
 Frc consts  --      0.7200                 1.0943                 1.0515
 IR Inten    --     23.2378                 4.7831                 8.7133

                     34                     35                     36
                      A                      A                      A
 Frequencies --    948.7330               974.8984               983.1505
 Red. masses --      2.5215                 1.6647                 2.5728
 Frc consts  --      1.3372                 0.9322                 1.4652
 IR Inten    --      2.2441                 3.3591                10.2151

                     37                     38                     39
                      A                      A                      A
 Frequencies --    988.8393              1005.2336              1034.9579
 Red. masses --      2.6547                 2.6179                 2.3367
 Frc consts  --      1.5294                 1.5586                 1.4747
 IR Inten    --      8.8044                 7.2834                 2.3963

                     40                     41                     42
                      A                      A                      A
 Frequencies --   1050.6278              1066.9741              1093.2143
 Red. masses --      3.0272                 2.6414                 2.4652
 Frc consts  --      1.9688                 1.7717                 1.7359
 IR Inten    --     14.0800                 7.0675                 3.9269

                     43                     44                     45
                      A                      A                      A
 Frequencies --   1095.8629              1119.5492              1121.9620
 Red. masses --      2.6671                 1.8866                 2.4259
 Frc consts  --      1.8871                 1.3932                 1.7992
 IR Inten    --     16.8544                 1.1179                15.0140

                     46                     47                     48
                      A                      A                      A
 Frequencies --   1160.8382              1168.6505              1188.4256
 Red. masses --      2.0375                 1.7202                 1.5509
 Frc consts  --      1.6176                 1.3842                 1.2906
 IR Inten    --      4.5264                 6.6643                 1.4308

                     49                     50                     51
                      A                      A                      A
 Frequencies --   1196.7868              1245.6062              1255.6669
 Red. masses --      2.4411                 1.4768                 1.8247
 Frc consts  --      2.0600                 1.3500                 1.6951
 IR Inten    --     22.0225                26.5873                12.1584

                     52                     53                     54
                      A                      A                      A
 Frequencies --   1268.0201              1284.4967              1308.2151
 Red. masses --      1.3734                 1.4402                 1.4255
 Frc consts  --      1.3011                 1.4001                 1.4374
 IR Inten    --     16.9607                 2.6993                 2.9308

                     55                     56                     57
                      A                      A                      A
 Frequencies --   1319.7694              1339.2504              1358.2765
 Red. masses --      1.3667                 1.3591                 1.2466
 Frc consts  --      1.4025                 1.4362                 1.3550
 IR Inten    --      1.8332                 3.7341                 5.8055

                     58                     59                     60
                      A                      A                      A
 Frequencies --   1373.3820              1385.2144              1390.7439
 Red. masses --      1.8803                 1.4625                 1.2176
 Frc consts  --      2.0896                 1.6535                 1.3875
 IR Inten    --     24.4241                 9.6666                12.4400

                     61                     62                     63
                      A                      A                      A
 Frequencies --   1398.1448              1422.1656              1442.1529
 Red. masses --      1.5009                 1.4328                 1.1646
 Frc consts  --      1.7287                 1.7074                 1.4271
 IR Inten    --      8.9585                11.1322                14.5923

                     64                     65                     66
                      A                      A                      A
 Frequencies --   1445.1400              1493.4998              1518.2846
 Red. masses --      2.9833                 1.0892                 1.0851
 Frc consts  --      3.6709                 1.4315                 1.4737
 IR Inten    --      7.7479                 3.0686                 2.1864

                     67                     68                     69
                      A                      A                      A
 Frequencies --   1653.7495              1655.2284              1734.0028
 Red. masses --      7.8230                 1.0968                 9.8154
 Frc consts  --     12.6056                 1.7705                17.3883
 IR Inten    --      7.3111                47.6240                 6.4826

                     70                     71                     72
                      A                      A                      A
 Frequencies --   1788.2407              2940.6556              2974.6909
 Red. masses --     11.3658                 1.0724                 1.0790
 Frc consts  --     21.4142                 5.4639                 5.6255
 IR Inten    --    138.6127                82.9208                 8.3181

                     73                     74                     75
                      A                      A                      A
 Frequencies --   3010.2769              3028.0647              3032.1859
 Red. masses --      1.0636                 1.0890                 1.0786
 Frc consts  --      5.6784                 5.8830                 5.8428
 IR Inten    --      7.4786                29.0851                10.9348

                     76                     77                     78
                      A                      A                      A
 Frequencies --   3039.9570              3050.9568              3067.7325
 Red. masses --      1.0791                 1.0793                 1.0875
 Frc consts  --      5.8757                 5.9195                 6.0300
 IR Inten    --      3.4471                49.6934                38.0617

                     79                     80                     81
                      A                      A                      A
 Frequencies --   3091.1937              3172.8225              3179.6616
 Red. masses --      1.1047                 1.0881                 1.0920
 Frc consts  --      6.2196                 6.4540                 6.5046
 IR Inten    --     16.7974                 5.2635                12.0727

                     82                     83                     84
                      A                      A                      A
 Frequencies --   3196.2557              3495.8798              3580.6553
 Red. masses --      1.0980                 1.0490                 1.0934
 Frc consts  --      6.6090                 7.5531                 8.2594
 IR Inten    --     22.4246                 0.6217                 1.6318

 - Thermochemistry -
 -------------------
 Temperature   298.150 Kelvin.  Pressure   1.00000 Atm.
 Atom     1 has atomic number  7 and mass  14.00307

 Molecular mass:   214.11061 amu.
 Principal axes and moments of inertia in atomic units:
                           1         2         3
     Eigenvalues --  2535.574483076.324254573.40428
           X            0.99831   0.05803   0.00183
           Y           -0.05800   0.99825  -0.01172
           Z           -0.00251   0.01160   0.99993
 This molecule is an asymmetric top.
 Rotational symmetry number  1.
 Warning -- assumption of classical behavior for rotation
           may cause significant error
 Rotational temperatures (Kelvin)      0.03416     0.02816     0.01894
 Rotational constants (GHZ):           0.71177     0.58666     0.39462
 Zero-point vibrational energy     642463.8 (Joules/Mol)
                                  153.55254 (Kcal/Mol)
 Warning -- explicit consideration of  21 degrees of freedom as
           vibrations may cause significant error
 Vibrational temperatures:     93.05   117.19   143.20   170.99   206.56
          (Kelvin)            260.62   281.86   344.59   367.50   400.23
                              425.03   503.77   518.64   565.15   586.09
                              598.09   638.64   737.56   781.54   836.11
                              859.81   943.12   987.45  1041.83  1077.47
                             1140.78  1162.33  1195.52  1211.01  1243.08
                             1287.03  1333.48  1353.35  1365.02  1402.66
                             1414.53  1422.72  1446.31  1489.07  1511.62
                             1535.14  1572.89  1576.70  1610.78  1614.25
                             1670.19  1681.43  1709.88  1721.91  1792.15
                             1806.62  1824.40  1848.10  1882.23  1898.85
                             1926.88  1954.26  1975.99  1993.01  2000.97
                             2011.62  2046.18  2074.94  2079.23  2148.81
                             2184.47  2379.38  2381.50  2494.84  2572.88
                             4230.95  4279.92  4331.12  4356.71  4362.64
                             4373.82  4389.65  4413.78  4447.54  4564.98
                             4574.82  4598.70  5029.79  5151.76

 Zero-point correction=                           0.244702 (Hartree/Particle)
 Thermal correction to Energy=                    0.258419
 Thermal correction to Enthalpy=                  0.259364
 Thermal correction to Gibbs Free Energy=         0.204935
 Sum of electronic and zero-point Energies=           -688.123196
 Sum of electronic and thermal Energies=              -688.109478
 Sum of electronic and thermal Enthalpies=            -688.108534
 Sum of electronic and thermal Free Energies=         -688.162963

                     E (Thermal)             CV                S
                      KCal/Mol        Cal/Mol-Kelvin    Cal/Mol-Kelvin
 Total                  162.161             54.610            114.554
 Electronic               0.000              0.000              0.000
 Translational            0.889              2.981             41.987
 Rotational               0.889              2.981             31.945
 Vibrational            160.383             48.649             40.622
 Vibration     1          0.597              1.971              4.309
 Vibration     2          0.600              1.962              3.856
 Vibration     3          0.604              1.949              3.464
 Vibration     4          0.609              1.934              3.119
 Vibration     5          0.616              1.910              2.756
 Vibration     6          0.630              1.865              2.317
 Vibration     7          0.636              1.846              2.171
 Vibration     8          0.657              1.780              1.807
 Vibration     9          0.666              1.754              1.693
 Vibration    10          0.679              1.714              1.545
 Vibration    11          0.690              1.682              1.443
 Vibration    12          0.727              1.575              1.166
 Vibration    13          0.735              1.554              1.120
 Vibration    14          0.760              1.486              0.989
 Vibration    15          0.772              1.454              0.936
 Vibration    16          0.779              1.436              0.907
 Vibration    17          0.803              1.374              0.815
 Vibration    18          0.868              1.222              0.627
 Vibration    19          0.898              1.155              0.558
 Vibration    20          0.938              1.072              0.483
 Vibration    21          0.956              1.037              0.454

 Optimization completed.
    -- Stationary point found.
 Normal termination of Gaussian 16 at Sat May 20 12:08:44 2023.
