 Gaussian 16, Revision A.03,
 Gaussian 16:  ES64L-G16RevA.03 25-Dec-2016

 -----------------------------
 # opt freq b3lyp/6-31g(2df,p)
 -----------------------------

 -------------------
 Title Card Required
 -------------------
 Symbolic Z-matrix:
 Charge =  0 Multiplicity = 1

 SCF Done:  E(RB3LYP) =  -1280.35942756     A.U. after   19 cycles
 SCF Done:  E(RB3LYP) =  -1280.39077894     A.U. after   16 cycles
 SCF Done:  E(RB3LYP) =  -1280.40342810     A.U. after   16 cycles
 SCF Done:  E(RB3LYP) =  -1280.40798775     A.U. after   15 cycles
 SCF Done:  E(RB3LYP) =  -1280.41001022     A.U. after   14 cycles
 SCF Done:  E(RB3LYP) =  -1280.40935224     A.U. after   16 cycles
 SCF Done:  E(RB3LYP) =  -1280.41183492     A.U. after   14 cycles
 SCF Done:  E(RB3LYP) =  -1280.41219996     A.U. after   14 cycles
 SCF Done:  E(RB3LYP) =  -1280.41283293     A.U. after   14 cycles
 SCF Done:  E(RB3LYP) =  -1280.41894995     A.U. after   16 cycles
 SCF Done:  E(RB3LYP) =  -1280.48111034     A.U. after    9 cycles
 SCF Done:  E(RB3LYP) =  -1280.48111521     A.U. after    8 cycles
 SCF Done:  E(RB3LYP) =  -1280.48112490     A.U. after    9 cycles
 SCF Done:  E(RB3LYP) =  -1280.48114488     A.U. after   10 cycles
 SCF Done:  E(RB3LYP) =  -1280.48116015     A.U. after    9 cycles
 SCF Done:  E(RB3LYP) =  -1280.48116822     A.U. after   10 cycles
 SCF Done:  E(RB3LYP) =  -1280.48116858     A.U. after    7 cycles
 SCF Done:  E(RB3LYP) =  -1280.48116916     A.U. after    7 cycles
 SCF Done:  E(RB3LYP) =  -1280.48116931     A.U. after    6 cycles
 Optimization completed.
    -- Stationary point found.
 Normal termination of Gaussian 16 at Thu May 18 08:52:53 2023.

 ----------------------------------------------------------------------
 #N Geom=AllCheck Guess=TCheck SCRF=Check GenChk RB3LYP/6-31G(2df,p) Fr
 eq
 ----------------------------------------------------------------------

 Structure from the checkpoint file:  "NCC1CCCCSC[C]C1dCCdS.chk"
 -------------------
 Title Card Required
 -------------------
 Charge =  0 Multiplicity = 1

                         Standard orientation:
 ---------------------------------------------------------------------
 Center     Atomic      Atomic             Coordinates (Angstroms)
 Number     Number       Type             X           Y           Z
 ---------------------------------------------------------------------
      1          7           0        1.302555    3.788902    0.587724
      2          6           0        1.467314    2.419344    0.096118
      3          6           0        0.183746    1.597526    0.327371
      4          6           0       -1.026358    2.188076   -0.438070
      5          6           0       -2.370177    1.488873   -0.154876
      6          6           0       -2.688902    0.310217   -1.101180
      7          6           0       -3.390055   -0.883656   -0.442992
      8         16           0       -2.479178   -1.709550    0.920549
      9          6           0       -0.907641   -2.178777    0.101818
     10          6           0        0.067037   -1.076648   -0.035144
     11          6           0        0.421660    0.156909    0.031389
     12          6           0        1.486772   -0.799507   -0.546520
     13          6           0        2.634861   -1.177615    0.273602
     14         16           0        4.122212   -1.574412   -0.266271
     15          1           0        2.079790    4.362682    0.277394
     16          1           0        1.333861    3.797786    1.603518
     17          1           0        2.316148    1.882241    0.547947
     18          1           0        1.668352    2.466743   -0.980790
     19          1           0       -0.059733    1.657893    1.399765
     20          1           0       -0.813248    2.173494   -1.515228
     21          1           0       -1.074731    3.241302   -0.150040
     22          1           0       -3.178196    2.225159   -0.223304
     23          1           0       -2.373378    1.134131    0.882287
     24          1           0       -1.774157   -0.042896   -1.583993
     25          1           0       -3.334236    0.656427   -1.918947
     26          1           0       -3.643359   -1.638999   -1.193463
     27          1           0       -4.326493   -0.575386    0.034591
     28          1           0       -1.120424   -2.624907   -0.877218
     29          1           0       -0.485084   -2.980319    0.716938
     30          1           0        1.679370   -0.801825   -1.621120
     31          1           0        2.429551   -1.180882    1.350052
 ---------------------------------------------------------------------

 SCF Done:  E(RB3LYP) =  -1280.48116931     A.U. after    1 cycles

 The electronic state is 1-A.
 Alpha  occ. eigenvalues --  -88.87636 -88.84089 -14.31825 -10.24045 -10.23965
 Alpha  occ. eigenvalues --  -10.22111 -10.21879 -10.21698 -10.21658 -10.21514
 Alpha  occ. eigenvalues --  -10.21230 -10.19248 -10.18584 -10.18438  -7.93934
 Alpha  occ. eigenvalues --   -7.90637  -5.90433  -5.90067  -5.89448  -5.86938
 Alpha  occ. eigenvalues --   -5.86913  -5.86155  -0.90186  -0.88779  -0.82478
 Alpha  occ. eigenvalues --   -0.80511  -0.78206  -0.75756  -0.72718  -0.66938
 Alpha  occ. eigenvalues --   -0.64114  -0.61934  -0.60620  -0.57659  -0.55001
 Alpha  occ. eigenvalues --   -0.52232  -0.50349  -0.48019  -0.47616  -0.46143
 Alpha  occ. eigenvalues --   -0.45076  -0.44087  -0.43388  -0.42630  -0.42241
 Alpha  occ. eigenvalues --   -0.40362  -0.38843  -0.38477  -0.37179  -0.36352
 Alpha  occ. eigenvalues --   -0.34580  -0.34362  -0.34053  -0.32954  -0.31700
 Alpha  occ. eigenvalues --   -0.31012  -0.25892  -0.25721  -0.24518  -0.23117
 Alpha  occ. eigenvalues --   -0.20787
 Alpha virt. eigenvalues --   -0.06511   0.00595   0.03115   0.06353   0.07180
 Alpha virt. eigenvalues --    0.07610   0.09519   0.09979   0.10525   0.11624
 Alpha virt. eigenvalues --    0.12668   0.13004   0.13215   0.13827   0.14293

 Mulliken charges:
               1
     1  N   -0.511931
     2  C   -0.173777
     3  C   -0.157680
     4  C   -0.193181
     5  C   -0.200820
     6  C   -0.188341
     7  C   -0.202411
     8  S   -0.144039
     9  C   -0.349780
    10  C    0.107736
    11  C    0.281827
    12  C   -0.187977
    13  C    0.035430
    14  S   -0.310676
    15  H    0.233372
    16  H    0.227549
    17  H    0.099274
    18  H    0.113491
    19  H    0.102458
    20  H    0.093129
    21  H    0.124655
    22  H    0.095774
    23  H    0.120265
    24  H    0.106420
    25  H    0.100982
    26  H    0.125456
    27  H    0.133384
    28  H    0.150017
    29  H    0.160224
    30  H    0.095200
    31  H    0.113968
 Sum of Mulliken charges =   0.00000

 Dipole moment (field-independent basis, Debye):
    X=             -3.1610    Y=              2.1159    Z=             -0.2354  Tot=              3.8111
 Quadrupole moment (field-independent basis, Debye-Ang):
   XX=           -113.4109   YY=            -98.6848   ZZ=            -98.1633
   XY=              9.9694   XZ=              7.0791   YZ=              3.6591

  Exact polarizability: 219.265 -13.095 161.313  -5.712  -0.196 121.058
 Approx polarizability: 314.074 -25.593 237.353 -19.732   2.044 207.840

                      1                      2                      3
                      A                      A                      A
 Frequencies --     17.4428                48.2677                56.6367
 Red. masses --      4.3494                 9.0461                 4.8031
 Frc consts  --      0.0008                 0.0124                 0.0091
 IR Inten    --      1.1929                 1.7185                 0.9966

                      4                      5                      6
                      A                      A                      A
 Frequencies --    101.6667               132.4941               143.9351
 Red. masses --      2.4195                 3.4564                 5.0016
 Frc consts  --      0.0147                 0.0357                 0.0611
 IR Inten    --      2.2910                 1.1492                 0.2155

                      7                      8                      9
                      A                      A                      A
 Frequencies --    172.5189               185.9101               201.3176
 Red. masses --      3.0816                 2.8501                 2.7674
 Frc consts  --      0.0540                 0.0580                 0.0661
 IR Inten    --      2.0761                 2.3527                 5.5319

                     10                     11                     12
                      A                      A                      A
 Frequencies --    219.9242               231.9595               247.2718
 Red. masses --      1.8502                 1.6764                 3.0934
 Frc consts  --      0.0527                 0.0531                 0.1114
 IR Inten    --      4.6186                20.5848                 4.9515

                     13                     14                     15
                      A                      A                      A
 Frequencies --    287.1461               296.5390               313.5501
 Red. masses --      2.2482                 2.9622                 2.5512
 Frc consts  --      0.1092                 0.1535                 0.1478
 IR Inten    --      0.9927                 7.5239                 0.7237

                     16                     17                     18
                      A                      A                      A
 Frequencies --    345.2552               376.8115               406.0419
 Red. masses --      3.1612                 2.7372                 3.7444
 Frc consts  --      0.2220                 0.2290                 0.3637
 IR Inten    --      7.1402                 3.2833                 7.4798

                     19                     20                     21
                      A                      A                      A
 Frequencies --    460.1566               479.2405               529.4037
 Red. masses --      3.3964                 4.4391                 2.9210
 Frc consts  --      0.4237                 0.6007                 0.4823
 IR Inten    --      2.0198                 5.2562                 7.3348

                     22                     23                     24
                      A                      A                      A
 Frequencies --    580.3902               623.8019               679.6151
 Red. masses --      4.4134                 3.2782                 3.5403
 Frc consts  --      0.8759                 0.7516                 0.9634
 IR Inten    --      2.5913                 2.3618                 6.5893

                     25                     26                     27
                      A                      A                      A
 Frequencies --    727.3437               760.8217               782.8466
 Red. masses --      3.0648                 2.6682                 2.2287
 Frc consts  --      0.9553                 0.9100                 0.8047
 IR Inten    --      1.2646                 7.7231                 4.3026

                     28                     29                     30
                      A                      A                      A
 Frequencies --    818.5571               838.5861               856.9389
 Red. masses --      2.3427                 1.3278                 1.8059
 Frc consts  --      0.9249                 0.5501                 0.7813
 IR Inten    --      5.9743                90.5598                 0.9336

                     31                     32                     33
                      A                      A                      A
 Frequencies --    894.4548               928.1081               938.9678
 Red. masses --      2.0443                 1.6723                 1.7840
 Frc consts  --      0.9636                 0.8487                 0.9267
 IR Inten    --     31.6387                 3.4492                 2.6894

                     34                     35                     36
                      A                      A                      A
 Frequencies --    967.3136               991.3594               999.6197
 Red. masses --      1.6519                 2.7952                 3.1778
 Frc consts  --      0.9107                 1.6185                 1.8709
 IR Inten    --      3.4725                20.0124                42.7244

                     37                     38                     39
                      A                      A                      A
 Frequencies --   1026.1733              1043.5534              1047.8162
 Red. masses --      2.1067                 1.3569                 2.4384
 Frc consts  --      1.3071                 0.8706                 1.5774
 IR Inten    --      1.7800                21.3869                19.7052

                     40                     41                     42
                      A                      A                      A
 Frequencies --   1055.2494              1082.8603              1090.6334
 Red. masses --      3.2404                 2.4088                 3.0422
 Frc consts  --      2.1260                 1.6642                 2.1321
 IR Inten    --     37.9260                 8.8550                15.7659

                     43                     44                     45
                      A                      A                      A
 Frequencies --   1103.0722              1138.3484              1160.1636
 Red. masses --      2.0373                 2.3593                 1.7176
 Frc consts  --      1.4605                 1.8013                 1.3621
 IR Inten    --      5.4400                50.6152                99.4762

                     46                     47                     48
                      A                      A                      A
 Frequencies --   1163.4450              1173.8167              1195.6820
 Red. masses --      1.8382                 1.3112                 1.1536
 Frc consts  --      1.4660                 1.0644                 0.9718
 IR Inten    --     59.5609                 1.0300                14.3518

                     49                     50                     51
                      A                      A                      A
 Frequencies --   1214.3893              1244.6419              1259.3644
 Red. masses --      1.4747                 1.2589                 1.3365
 Frc consts  --      1.2814                 1.1490                 1.2489
 IR Inten    --      4.4085                 0.7835                27.9289

                     52                     53                     54
                      A                      A                      A
 Frequencies --   1282.1424              1293.1933              1319.8029
 Red. masses --      1.2524                 1.2410                 1.1924
 Frc consts  --      1.2130                 1.2227                 1.2237
 IR Inten    --     56.4081                11.3721                 9.4278

                     55                     56                     57
                      A                      A                      A
 Frequencies --   1324.5350              1330.5240              1348.6751
 Red. masses --      1.2645                 1.1440                 1.2697
 Frc consts  --      1.3071                 1.1933                 1.3607
 IR Inten    --      1.7791                 9.6176                 0.3021

                     58                     59                     60
                      A                      A                      A
 Frequencies --   1355.9645              1368.8545              1399.3490
 Red. masses --      1.3070                 1.4100                 1.4046
 Frc consts  --      1.4159                 1.5566                 1.6205
 IR Inten    --      2.1311                 3.3746                 8.1929

                     61                     62                     63
                      A                      A                      A
 Frequencies --   1402.7478              1424.9600              1441.1017
 Red. masses --      1.4497                 1.4088                 1.0874
 Frc consts  --      1.6807                 1.6854                 1.3305
 IR Inten    --     78.8784                12.7167                 7.6701

                     64                     65                     66
                      A                      A                      A
 Frequencies --   1463.5021              1490.8981              1496.0024
 Red. masses --      1.0896                 1.0698                 1.0824
 Frc consts  --      1.3750                 1.4010                 1.4273
 IR Inten    --      2.8657                 3.2529                 1.9793

                     67                     68                     69
                      A                      A                      A
 Frequencies --   1499.1514              1505.0069              1659.8764
 Red. masses --      1.0858                 1.0867                 1.0888
 Frc consts  --      1.4377                 1.4502                 1.7674
 IR Inten    --      7.2727                 1.0692                22.8344

                     70                     71                     72
                      A                      A                      A
 Frequencies --   1978.9783              2972.9703              2982.3837
 Red. masses --     11.2003                 1.0717                 1.0788
 Frc consts  --     25.8441                 5.5810                 5.6533
 IR Inten    --     30.0704                55.9695                 6.3470

                     73                     74                     75
                      A                      A                      A
 Frequencies --   3022.6505              3023.3870              3031.8690
 Red. masses --      1.0690                 1.0716                 1.0619
 Frc consts  --      5.7545                 5.7710                 5.7512
 IR Inten    --      2.6710                27.6145                20.0339

                     76                     77                     78
                      A                      A                      A
 Frequencies --   3033.7778              3043.8884              3055.3255
 Red. masses --      1.0600                 1.0593                 1.0862
 Frc consts  --      5.7484                 5.7825                 5.9743
 IR Inten    --     14.2985                29.5585                 5.4173

                     79                     80                     81
                      A                      A                      A
 Frequencies --   3056.8609              3068.8184              3077.2955
 Red. masses --      1.0912                 1.0985                 1.0991
 Frc consts  --      6.0076                 6.0952                 6.1324
 IR Inten    --     30.1709                26.4825                 2.7157

                     82                     83                     84
                      A                      A                      A
 Frequencies --   3082.6403              3086.6717              3096.7458
 Red. masses --      1.1011                 1.0860                 1.0959
 Frc consts  --      6.1649                 6.0961                 6.1919
 IR Inten    --     16.7597                25.6650                 2.3556

                     85                     86                     87
                      A                      A                      A
 Frequencies --   3100.1455              3492.3894              3572.5007
 Red. masses --      1.0954                 1.0504                 1.0914
 Frc consts  --      6.2027                 7.5480                 8.2070
 IR Inten    --     38.5953                 0.2543                 0.8397

 - Thermochemistry -
 -------------------
 Temperature   298.150 Kelvin.  Pressure   1.00000 Atm.
 Atom     1 has atomic number  7 and mass  14.00307

 Molecular mass:   227.08024 amu.
 Principal axes and moments of inertia in atomic units:
                           1         2         3
     Eigenvalues --  2981.001544954.501967350.23187
           X            0.99962   0.02365   0.01382
           Y           -0.02376   0.99968   0.00817
           Z           -0.01362  -0.00849   0.99987
 This molecule is an asymmetric top.
 Rotational symmetry number  1.
 Warning -- assumption of classical behavior for rotation
           may cause significant error
 Rotational temperatures (Kelvin)      0.02906     0.01748     0.01178
 Rotational constants (GHZ):           0.60541     0.36426     0.24554
 Zero-point vibrational energy     686818.0 (Joules/Mol)
                                  164.15345 (Kcal/Mol)
 Warning -- explicit consideration of  22 degrees of freedom as
           vibrations may cause significant error
 Vibrational temperatures:     25.10    69.45    81.49   146.28   190.63
          (Kelvin)            207.09   248.22   267.48   289.65   316.42
                              333.74   355.77   413.14   426.65   451.13
                              496.75   542.15   584.20   662.06   689.52
                              761.69   835.05   897.51   977.81  1046.49
                             1094.65  1126.34  1177.72  1206.54  1232.94
                             1286.92  1335.34  1350.97  1391.75  1426.35
                             1438.23  1476.43  1501.44  1507.57  1518.27
                             1557.99  1569.18  1587.07  1637.83  1669.22
                             1673.94  1688.86  1720.32  1747.24  1790.76
                             1811.94  1844.72  1860.62  1898.90  1905.71
                             1914.33  1940.44  1950.93  1969.48  2013.35
                             2018.24  2050.20  2073.42  2105.65  2145.07
                             2152.41  2156.94  2165.37  2388.19  2847.31
                             4277.44  4290.98  4348.92  4349.98  4362.18
                             4364.93  4379.48  4395.93  4398.14  4415.35
                             4427.54  4435.23  4441.03  4455.53  4460.42
                             5024.77  5140.03

 Zero-point correction=                           0.261595 (Hartree/Particle)
 Thermal correction to Energy=                    0.276963
 Thermal correction to Enthalpy=                  0.277907
 Thermal correction to Gibbs Free Energy=         0.217604
 Sum of electronic and zero-point Energies=          -1280.219574
 Sum of electronic and thermal Energies=             -1280.204207
 Sum of electronic and thermal Enthalpies=           -1280.203263
 Sum of electronic and thermal Free Energies=        -1280.263565

                     E (Thermal)             CV                S
                      KCal/Mol        Cal/Mol-Kelvin    Cal/Mol-Kelvin
 Total                  173.797             57.300            126.917
 Electronic               0.000              0.000              0.000
 Translational            0.889              2.981             42.163
 Rotational               0.889              2.981             33.051
 Vibrational            172.019             51.338             51.703
 Vibration     1          0.593              1.986              6.906
 Vibration     2          0.595              1.978              4.887
 Vibration     3          0.596              1.975              4.571
 Vibration     4          0.604              1.948              3.422
 Vibration     5          0.613              1.921              2.910
 Vibration     6          0.616              1.909              2.751
 Vibration     7          0.626              1.876              2.408
 Vibration     8          0.632              1.859              2.268
 Vibration     9          0.638              1.838              2.121
 Vibration    10          0.647              1.811              1.960
 Vibration    11          0.653              1.792              1.864
 Vibration    12          0.661              1.767              1.750
 Vibration    13          0.684              1.698              1.491
 Vibration    14          0.690              1.680              1.436
 Vibration    15          0.701              1.648              1.344
 Vibration    16          0.724              1.585              1.188
 Vibration    17          0.747              1.520              1.052
 Vibration    18          0.771              1.457              0.941
 Vibration    19          0.818              1.338              0.766
 Vibration    20          0.836              1.296              0.712
 Vibration    21          0.884              1.185              0.589
 Vibration    22          0.937              1.074              0.485

 Optimization completed.
    -- Stationary point found.
 Normal termination of Gaussian 16 at Thu May 18 10:58:37 2023.
