 Gaussian 16, Revision A.03,
 Gaussian 16:  ES64L-G16RevA.03 25-Dec-2016

 -----------------------------
 # opt freq b3lyp/6-31g(2df,p)
 -----------------------------

 -------------------
 Title Card Required
 -------------------
 Symbolic Z-matrix:
 Charge =  0 Multiplicity = 1

 SCF Done:  E(RB3LYP) =  -732.725691457     A.U. after   20 cycles
 SCF Done:  E(RB3LYP) =  -732.850571412     A.U. after   18 cycles
 SCF Done:  E(RB3LYP) =  -733.058191751     A.U. after   16 cycles
 SCF Done:  E(RB3LYP) =  -733.057411508     A.U. after   16 cycles
 SCF Done:  E(RB3LYP) =  -733.194736652     A.U. after   15 cycles
 SCF Done:  E(RB3LYP) =  -733.202429494     A.U. after   15 cycles
 SCF Done:  E(RB3LYP) =  -733.269847468     A.U. after   13 cycles
 SCF Done:  E(RB3LYP) =  -733.170017608     A.U. after   15 cycles
 SCF Done:  E(RB3LYP) =  -733.292193657     A.U. after   14 cycles
 SCF Done:  E(RB3LYP) =  -733.299034539     A.U. after   13 cycles
 SCF Done:  E(RB3LYP) =  -733.311411194     A.U. after   11 cycles
 SCF Done:  E(RB3LYP) =  -733.311431116     A.U. after   10 cycles
 SCF Done:  E(RB3LYP) =  -733.311442330     A.U. after    9 cycles
 SCF Done:  E(RB3LYP) =  -733.311448065     A.U. after    8 cycles
 SCF Done:  E(RB3LYP) =  -733.311451505     A.U. after    8 cycles
 SCF Done:  E(RB3LYP) =  -733.311456646     A.U. after    8 cycles
 SCF Done:  E(RB3LYP) =  -733.311463396     A.U. after    9 cycles
 SCF Done:  E(RB3LYP) =  -733.311467456     A.U. after    9 cycles
 SCF Done:  E(RB3LYP) =  -733.311468597     A.U. after    8 cycles
 Optimization completed.
    -- Stationary point found.
 Normal termination of Gaussian 16 at Thu May 18 17:43:23 2023.

 ----------------------------------------------------------------------
 #N Geom=AllCheck Guess=TCheck SCRF=Check GenChk RB3LYP/6-31G(2df,p) Fr
 eq
 ----------------------------------------------------------------------

 Structure from the checkpoint file:  "NCc1ccc2cccc3ccccqFrc3c1-2.chk"
 -------------------
 Title Card Required
 -------------------
 Charge =  0 Multiplicity = 1

                         Standard orientation:
 ---------------------------------------------------------------------
 Center     Atomic      Atomic             Coordinates (Angstroms)
 Number     Number       Type             X           Y           Z
 ---------------------------------------------------------------------
      1          7           0       -3.058930   -2.114124    1.128672
      2          6           0       -1.824297   -1.932501    0.340291
      3          6           0       -1.700100   -0.500177   -0.129857
      4          6           0       -2.925992    0.248900   -0.420946
      5          6           0       -2.642623    1.552222   -0.596296
      6          6           0       -1.215292    1.739960   -0.346585
      7          6           0       -0.744871    2.924761    0.130266
      8          6           0        0.593253    2.801881    0.707234
      9          6           0        1.448140    2.185991   -0.121560
     10          6           0        1.931232    0.821186    0.132070
     11          6           0        3.229694    0.392542    0.346257
     12          6           0        3.544293   -0.963372    0.275868
     13          6           0        2.558783   -1.852585   -0.122210
     14          6           0        1.265360   -1.399418   -0.352986
     15          9           0        0.429466   -2.303071   -0.893913
     16          6           0        0.832305   -0.082226   -0.109459
     17          6           0       -0.601544    0.335267   -0.210871
     18          1           0       -2.963190   -2.954361    1.690182
     19          1           0       -3.843853   -2.293446    0.509906
     20          1           0       -1.757852   -2.619638   -0.514252
     21          1           0       -0.983248   -2.174075    0.993320
     22          1           0       -3.910486   -0.196610   -0.435449
     23          1           0       -3.335093    2.365229   -0.763434
     24          1           0       -1.411848    3.777847    0.233189
     25          1           0        0.676467    2.715637    1.790499
     26          1           0        1.265586    2.352184   -1.185380
     27          1           0        4.000082    1.131409    0.535687
     28          1           0        4.554499   -1.310594    0.460610
     29          1           0        2.766204   -2.901661   -0.297658
 ---------------------------------------------------------------------

 SCF Done:  E(RB3LYP) =  -733.311468597     A.U. after    1 cycles

 The electronic state is 1-A.
 Alpha  occ. eigenvalues --  -24.69909 -14.30785 -10.26331 -10.20874 -10.20690
 Alpha  occ. eigenvalues --  -10.20584 -10.20563 -10.20169 -10.19779 -10.19207
 Alpha  occ. eigenvalues --  -10.18987 -10.18616 -10.18524 -10.18274 -10.18137
 Alpha  occ. eigenvalues --  -10.18072 -10.17782  -1.22016  -0.88617  -0.87224
 Alpha  occ. eigenvalues --   -0.85168  -0.81516  -0.77296  -0.75017  -0.71822
 Alpha  occ. eigenvalues --   -0.70741  -0.66356  -0.63235  -0.61503  -0.59347
 Alpha  occ. eigenvalues --   -0.56078  -0.53510  -0.52679  -0.51246  -0.49762
 Alpha  occ. eigenvalues --   -0.48496  -0.47175  -0.46660  -0.46496  -0.44838
 Alpha  occ. eigenvalues --   -0.43917  -0.42680  -0.41337  -0.40756  -0.39826
 Alpha  occ. eigenvalues --   -0.39255  -0.37955  -0.36356  -0.35752  -0.34507
 Alpha  occ. eigenvalues --   -0.34094  -0.33785  -0.33489  -0.27052  -0.25355
 Alpha  occ. eigenvalues --   -0.24071  -0.23659  -0.22612  -0.19553
 Alpha virt. eigenvalues --   -0.06981  -0.02796  -0.00655   0.02237   0.07331
 Alpha virt. eigenvalues --    0.08013   0.08906   0.09980   0.11736   0.12873
 Alpha virt. eigenvalues --    0.13663   0.14456   0.15481   0.15663   0.16098

 Mulliken charges:
               1
     1  N   -0.524078
     2  C   -0.280805
     3  C    0.191973
     4  C   -0.120307
     5  C   -0.207310
     6  C    0.184356
     7  C   -0.177274
     8  C   -0.136567
     9  C   -0.211473
    10  C    0.192647
    11  C   -0.234520
    12  C   -0.127209
    13  C   -0.204568
    14  C    0.195070
    15  F   -0.085910
    16  C   -0.000539
    17  C    0.029226
    18  H    0.229245
    19  H    0.226174
    20  H    0.109451
    21  H    0.115722
    22  H    0.096593
    23  H    0.105428
    24  H    0.104391
    25  H    0.110083
    26  H    0.108476
    27  H    0.101159
    28  H    0.103871
    29  H    0.106695
 Sum of Mulliken charges =  -0.00000

 Dipole moment (field-independent basis, Debye):
    X=             -0.3967    Y=             -0.7886    Z=              0.1190  Tot=              0.8908
 Quadrupole moment (field-independent basis, Debye-Ang):
   XX=            -87.0086   YY=            -87.6853   ZZ=            -99.3999
   XY=              0.2397   XZ=              3.1946   YZ=             -1.0977

  Exact polarizability: 235.736  -5.260 192.051  12.125   4.876  88.025
 Approx polarizability: 398.100  11.190 341.741  27.312  21.669 155.909

                      1                      2                      3
                      A                      A                      A
 Frequencies --     37.5783                73.1503               107.7668
 Red. masses --      4.9565                 5.2372                 3.1750
 Frc consts  --      0.0041                 0.0165                 0.0217
 IR Inten    --      0.2435                 0.6819                 2.8264

                      4                      5                      6
                      A                      A                      A
 Frequencies --    158.6367               181.1091               194.0353
 Red. masses --      1.8851                 2.6118                 5.0322
 Frc consts  --      0.0280                 0.0505                 0.1116
 IR Inten    --     27.9834                 3.1436                 2.2138

                      7                      8                      9
                      A                      A                      A
 Frequencies --    203.3034               219.6705               256.3330
 Red. masses --      1.4871                 3.4840                 4.9915
 Frc consts  --      0.0362                 0.0991                 0.1932
 IR Inten    --     17.0412                 6.3303                 0.6348

                     10                     11                     12
                      A                      A                      A
 Frequencies --    278.5990               299.9485               339.9062
 Red. masses --      4.5609                 3.4602                 5.0602
 Frc consts  --      0.2086                 0.1834                 0.3445
 IR Inten    --      0.9347                 3.1236                 1.5208

                     13                     14                     15
                      A                      A                      A
 Frequencies --    361.6490               389.9941               444.5826
 Red. masses --      4.4755                 5.0782                 4.4297
 Frc consts  --      0.3449                 0.4551                 0.5159
 IR Inten    --      0.7462                 0.0601                 0.8083

                     16                     17                     18
                      A                      A                      A
 Frequencies --    486.5277               500.0569               533.4036
 Red. masses --      4.8987                 4.6661                 4.8796
 Frc consts  --      0.6832                 0.6875                 0.8180
 IR Inten    --      1.7662                 0.7045                 4.3799

                     19                     20                     21
                      A                      A                      A
 Frequencies --    541.2437               563.5390               588.6091
 Red. masses --      4.8455                 4.1142                 4.5540
 Frc consts  --      0.8363                 0.7698                 0.9296
 IR Inten    --      4.0298                 1.3081                 4.7464

                     22                     23                     24
                      A                      A                      A
 Frequencies --    594.6912               659.4273               676.3343
 Red. masses --      3.8590                 3.3578                 2.4883
 Frc consts  --      0.8041                 0.8603                 0.6706
 IR Inten    --      1.8993                11.0636                15.3337

                     25                     26                     27
                      A                      A                      A
 Frequencies --    691.8265               742.9066               761.0010
 Red. masses --      3.9462                 3.4317                 1.9984
 Frc consts  --      1.1128                 1.1159                 0.6819
 IR Inten    --      1.2202                 0.5549                13.2896

                     28                     29                     30
                      A                      A                      A
 Frequencies --    781.6119               786.2510               803.4016
 Red. masses --      4.1369                 1.7764                 2.9118
 Frc consts  --      1.4891                 0.6470                 1.1073
 IR Inten    --      5.0673                36.2205                62.6545

                     31                     32                     33
                      A                      A                      A
 Frequencies --    817.9184               860.6384               888.9254
 Red. masses --      2.5037                 1.4674                 1.6439
 Frc consts  --      0.9868                 0.6404                 0.7653
 IR Inten    --     27.4440                76.9054                12.3503

                     34                     35                     36
                      A                      A                      A
 Frequencies --    890.4940               897.7069               914.3961
 Red. masses --      1.8101                 2.2689                 1.4162
 Frc consts  --      0.8457                 1.0773                 0.6976
 IR Inten    --     23.0318                14.1530                 6.5591

                     37                     38                     39
                      A                      A                      A
 Frequencies --    943.6116               958.0013               993.0539
 Red. masses --      1.2717                 5.4338                 2.0748
 Frc consts  --      0.6671                 2.9382                 1.2055
 IR Inten    --      1.4448                11.4238                33.4812

                     40                     41                     42
                      A                      A                      A
 Frequencies --   1002.9573              1018.1040              1077.9765
 Red. masses --      1.3071                 3.9533                 2.3813
 Frc consts  --      0.7747                 2.4143                 1.6304
 IR Inten    --     25.6946                 7.1992                21.3189

                     43                     44                     45
                      A                      A                      A
 Frequencies --   1089.1063              1093.2134              1115.9352
 Red. masses --      2.0469                 1.8339                 1.4210
 Frc consts  --      1.4305                 1.2914                 1.0426
 IR Inten    --      0.5917                 6.0189                 3.2637

                     46                     47                     48
                      A                      A                      A
 Frequencies --   1125.6663              1154.3256              1176.6347
 Red. masses --      1.5504                 1.9675                 1.1644
 Frc consts  --      1.1575                 1.5446                 0.9498
 IR Inten    --      3.3339                 4.5755                 0.5723

                     49                     50                     51
                      A                      A                      A
 Frequencies --   1222.5254              1228.6021              1261.5145
 Red. masses --      3.2472                 2.5198                 1.8078
 Frc consts  --      2.8594                 2.2410                 1.6950
 IR Inten    --      2.6510                 3.2937                 2.0078

                     52                     53                     54
                      A                      A                      A
 Frequencies --   1265.2855              1285.6146              1317.8837
 Red. masses --      2.0293                 2.6114                 2.0289
 Frc consts  --      1.9142                 2.5430                 2.0762
 IR Inten    --     26.3795                 6.0168                 0.8205

                     55                     56                     57
                      A                      A                      A
 Frequencies --   1326.1824              1332.3437              1368.5320
 Red. masses --      2.6920                 1.3854                 1.2516
 Frc consts  --      2.7896                 1.4490                 1.3811
 IR Inten    --      6.5893                44.5946                 5.5750

                     58                     59                     60
                      A                      A                      A
 Frequencies --   1387.6816              1413.6968              1431.2578
 Red. masses --      2.1907                 1.3879                 3.4856
 Frc consts  --      2.4855                 1.6343                 4.2069
 IR Inten    --      9.0203                29.6214                12.3351

                     61                     62                     63
                      A                      A                      A
 Frequencies --   1478.2029              1484.7064              1512.1817
 Red. masses --      1.2033                 2.8900                 4.1756
 Frc consts  --      1.5492                 3.7535                 5.6256
 IR Inten    --      0.1471                28.5227                38.7423

                     64                     65                     66
                      A                      A                      A
 Frequencies --   1586.1827              1604.3703              1620.1218
 Red. masses --      5.9887                 7.8453                 6.3404
 Frc consts  --      8.8774                11.8979                 9.8054
 IR Inten    --     12.4329                 3.4720                 6.5894

                     67                     68                     69
                      A                      A                      A
 Frequencies --   1635.0319              1660.4563              1663.9037
 Red. masses --      6.2649                 7.3261                 1.0869
 Frc consts  --      9.8678                11.9009                 1.7730
 IR Inten    --     14.7650                21.4703                20.1251

                     70                     71                     72
                      A                      A                      A
 Frequencies --   2997.4559              3084.8803              3096.7388
 Red. masses --      1.0702                 1.0845                 1.0912
 Frc consts  --      5.6650                 6.0810                 6.1657
 IR Inten    --     28.5594                11.9064                10.8760

                     73                     74                     75
                      A                      A                      A
 Frequencies --   3121.2871              3148.1457              3183.6297
 Red. masses --      1.0869                 1.0907                 1.0853
 Frc consts  --      6.2390                 6.3687                 6.4811
 IR Inten    --     10.8809                30.5204                 1.5511

                     76                     77                     78
                      A                      A                      A
 Frequencies --   3196.5224              3208.1508              3221.3732
 Red. masses --      1.0909                 1.0971                 1.0858
 Frc consts  --      6.5673                 6.6525                 6.6390
 IR Inten    --     10.3124                11.3480                 4.2456

                     79                     80                     81
                      A                      A                      A
 Frequencies --   3243.9525              3497.1090              3570.7455
 Red. masses --      1.1042                 1.0500                 1.0918
 Frc consts  --      6.8463                 7.5662                 8.2018
 IR Inten    --     13.7565                 0.3498                 0.5350

 - Thermochemistry -
 -------------------
 Temperature   298.150 Kelvin.  Pressure   1.00000 Atm.
 Atom     1 has atomic number  7 and mass  14.00307

 Molecular mass:   225.09538 amu.
 Principal axes and moments of inertia in atomic units:
                           1         2         3
     Eigenvalues --  2688.416393742.542585973.33093
           X            0.99962   0.02749   0.00024
           Y           -0.02749   0.99956  -0.01101
           Z           -0.00054   0.01100   0.99994
 This molecule is an asymmetric top.
 Rotational symmetry number  1.
 Warning -- assumption of classical behavior for rotation
           may cause significant error
 Rotational temperatures (Kelvin)      0.03222     0.02314     0.01450
 Rotational constants (GHZ):           0.67130     0.48222     0.30213
 Zero-point vibrational energy     597726.3 (Joules/Mol)
                                  142.86001 (Kcal/Mol)
 Warning -- explicit consideration of  22 degrees of freedom as
           vibrations may cause significant error
 Vibrational temperatures:     54.07   105.25   155.05   228.24   260.58
          (Kelvin)            279.17   292.51   316.06   368.81   400.84
                              431.56   489.05   520.33   561.11   639.66
                              700.00   719.47   767.45   778.73   810.81
                              846.88   855.63   948.77   973.09   995.38
                             1068.88  1094.91  1124.57  1131.24  1155.92
                             1176.80  1238.27  1278.97  1281.22  1291.60
                             1315.61  1357.65  1378.35  1428.78  1443.03
                             1464.82  1550.97  1566.98  1572.89  1605.58
                             1619.58  1660.82  1692.91  1758.94  1767.68
                             1815.04  1820.46  1849.71  1896.14  1908.08
                             1916.95  1969.01  1996.56  2033.99  2059.26
                             2126.80  2136.16  2175.69  2282.16  2308.33
                             2330.99  2352.45  2389.03  2393.99  4312.67
                             4438.45  4455.52  4490.84  4529.48  4580.53
                             4599.08  4615.81  4634.84  4667.32  5031.56
                             5137.51

 Zero-point correction=                           0.227662 (Hartree/Particle)
 Thermal correction to Energy=                    0.241432
 Thermal correction to Enthalpy=                  0.242377
 Thermal correction to Gibbs Free Energy=         0.187453
 Sum of electronic and zero-point Energies=           -733.083807
 Sum of electronic and thermal Energies=              -733.070036
 Sum of electronic and thermal Enthalpies=            -733.069092
 Sum of electronic and thermal Free Energies=         -733.124016

                     E (Thermal)             CV                S
                      KCal/Mol        Cal/Mol-Kelvin    Cal/Mol-Kelvin
 Total                  151.501             55.677            115.597
 Electronic               0.000              0.000              0.000
 Translational            0.889              2.981             42.136
 Rotational               0.889              2.981             32.463
 Vibrational            149.724             49.716             40.997
 Vibration     1          0.594              1.982              5.383
 Vibration     2          0.599              1.967              4.067
 Vibration     3          0.606              1.943              3.309
 Vibration     4          0.621              1.893              2.566
 Vibration     5          0.630              1.865              2.317
 Vibration     6          0.635              1.848              2.189
 Vibration     7          0.639              1.835              2.103
 Vibration     8          0.647              1.811              1.962
 Vibration     9          0.666              1.752              1.687
 Vibration    10          0.679              1.713              1.542
 Vibration    11          0.692              1.674              1.417
 Vibration    12          0.720              1.596              1.213
 Vibration    13          0.736              1.551              1.115
 Vibration    14          0.758              1.492              1.000
 Vibration    15          0.804              1.373              0.812
 Vibration    16          0.843              1.280              0.693
 Vibration    17          0.855              1.250              0.658
 Vibration    18          0.888              1.176              0.580
 Vibration    19          0.896              1.159              0.563
 Vibration    20          0.919              1.110              0.517
 Vibration    21          0.946              1.056              0.470
 Vibration    22          0.952              1.043              0.459

                           ! Non-Optimized Parameters !
 Normal termination of Gaussian 16 at Thu May 18 20:51:04 2023.
