 Gaussian 16, Revision A.03,
 Gaussian 16:  ES64L-G16RevA.03 25-Dec-2016

 -----------------------------
 # opt freq b3lyp/6-31g(2df,p)
 -----------------------------

 -------------------
 Title Card Required
 -------------------
 Symbolic Z-matrix:
 Charge =  0 Multiplicity = 1

 SCF Done:  E(RB3LYP) =  -1026.21831322     A.U. after   27 cycles
 SCF Done:  E(RB3LYP) =  -1026.26910659     A.U. after   18 cycles
 SCF Done:  E(RB3LYP) =  -1026.31389313     A.U. after   18 cycles
 SCF Done:  E(RB3LYP) =  -1026.33875388     A.U. after   16 cycles
 SCF Done:  E(RB3LYP) =  -1026.37239666     A.U. after   15 cycles
 SCF Done:  E(RB3LYP) =  -1026.38757435     A.U. after   14 cycles
 SCF Done:  E(RB3LYP) =  -1026.39374434     A.U. after   14 cycles
 SCF Done:  E(RB3LYP) =  -1026.39562765     A.U. after   14 cycles
 SCF Done:  E(RB3LYP) =  -1026.39611252     A.U. after   14 cycles
 SCF Done:  E(RB3LYP) =  -1026.39632858     A.U. after   12 cycles
 SCF Done:  E(RB3LYP) =  -1026.39643162     A.U. after   11 cycles
 SCF Done:  E(RB3LYP) =  -1026.39647837     A.U. after   11 cycles
 SCF Done:  E(RB3LYP) =  -1026.39648409     A.U. after    8 cycles
 SCF Done:  E(RB3LYP) =  -1026.39648648     A.U. after    9 cycles
 SCF Done:  E(RB3LYP) =  -1026.39648694     A.U. after    8 cycles
 Optimization completed.
    -- Stationary point found.
 Normal termination of Gaussian 16 at Thu May 18 13:17:42 2023.

 ----------------------------------------------------------------------
 #N Geom=AllCheck Guess=TCheck SCRF=Check GenChk RB3LYP/6-31G(2df,p) Fr
 eq
 ----------------------------------------------------------------------

 Structure from the checkpoint file:  "NCCCCOC1dC2CdCqNdN2rSCdC1.chk"
 -------------------
 Title Card Required
 -------------------
 Charge =  0 Multiplicity = 1

                         Standard orientation:
 ---------------------------------------------------------------------
 Center     Atomic      Atomic             Coordinates (Angstroms)
 Number     Number       Type             X           Y           Z
 ---------------------------------------------------------------------
      1          7           0        6.501082   -0.534741    0.065730
      2          6           0        5.397185    0.420253   -0.059795
      3          6           0        4.053218   -0.306370    0.012280
      4          6           0        2.857032    0.648227   -0.068297
      5          6           0        1.538850   -0.103398   -0.017192
      6          8           0        0.466483    0.862238   -0.132169
      7          6           0       -0.726740    0.548345    0.325838
      8          6           0       -1.098943   -0.757971    0.773337
      9          6           0       -2.427406   -0.728967    1.254082
     10          6           0       -3.183119   -1.123147    0.177507
     11          7           0       -2.352602   -1.619678   -0.847585
     12          7           0       -1.119643   -1.475381   -0.493352
     13         16           0       -4.287187    0.216637   -0.233441
     14          6           0       -3.058753    1.489024   -0.237096
     15          6           0       -1.719590    1.589433    0.053268
     16          1           0        7.387760   -0.040029    0.076727
     17          1           0        6.527522   -1.136986   -0.752715
     18          1           0        5.428579    1.026435   -0.983080
     19          1           0        5.470352    1.126419    0.776879
     20          1           0        4.019940   -0.886161    0.942060
     21          1           0        3.994675   -1.035689   -0.807994
     22          1           0        2.899369    1.230537   -0.996613
     23          1           0        2.893253    1.367861    0.758743
     24          1           0        1.396324   -0.657386    0.918102
     25          1           0        1.428273   -0.811236   -0.842768
     26          1           0       -2.779297   -0.162921    2.102589
     27          1           0       -3.513680    2.405471   -0.613296
     28          1           0       -1.282198    2.565595   -0.143339
 ---------------------------------------------------------------------

 SCF Done:  E(RB3LYP) =  -1026.39648694     A.U. after    1 cycles

 The electronic state is 1-A.
 Alpha  occ. eigenvalues --  -88.91870 -19.21496 -14.36262 -14.34819 -14.31184
 Alpha  occ. eigenvalues --  -10.30872 -10.25711 -10.24994 -10.22378 -10.22051
 Alpha  occ. eigenvalues --  -10.21171 -10.20306 -10.19943 -10.19748 -10.19047
 Alpha  occ. eigenvalues --   -7.97832  -5.94294  -5.93932  -5.93493  -1.11263
 Alpha  occ. eigenvalues --   -1.02510  -0.88351  -0.85756  -0.82518  -0.79876
 Alpha  occ. eigenvalues --   -0.78248  -0.73836  -0.71261  -0.66616  -0.62919
 Alpha  occ. eigenvalues --   -0.59912  -0.59112  -0.56715  -0.55532  -0.51842
 Alpha  occ. eigenvalues --   -0.51053  -0.49355  -0.48546  -0.46393  -0.45566
 Alpha  occ. eigenvalues --   -0.44908  -0.43891  -0.42574  -0.40791  -0.39867
 Alpha  occ. eigenvalues --   -0.38980  -0.37258  -0.36449  -0.35900  -0.35476
 Alpha  occ. eigenvalues --   -0.34580  -0.34058  -0.33016  -0.31378  -0.26292
 Alpha  occ. eigenvalues --   -0.25614  -0.24080  -0.23098  -0.21478
 Alpha virt. eigenvalues --   -0.09003  -0.03552  -0.01474   0.02173   0.02872
 Alpha virt. eigenvalues --    0.07465   0.08714   0.08966   0.10486   0.11167
 Alpha virt. eigenvalues --    0.11697   0.12461   0.13634   0.14249   0.15741

 Mulliken charges:
               1
     1  N   -0.509012
     2  C   -0.149753
     3  C   -0.160966
     4  C   -0.212060
     5  C   -0.075706
     6  O   -0.224371
     7  C    0.422978
     8  C   -0.146666
     9  C   -0.130296
    10  C    0.065751
    11  N   -0.167766
    12  N   -0.174860
    13  S   -0.050324
    14  C   -0.068317
    15  C   -0.166684
    16  H    0.227302
    17  H    0.224319
    18  H    0.079982
    19  H    0.104049
    20  H    0.115560
    21  H    0.098597
    22  H    0.113160
    23  H    0.108187
    24  H    0.131325
    25  H    0.152828
    26  H    0.133602
    27  H    0.141011
    28  H    0.118130
 Sum of Mulliken charges =  -0.00000

 Dipole moment (field-independent basis, Debye):
    X=              2.8083    Y=              4.1874    Z=              0.8586  Tot=              5.1145
 Quadrupole moment (field-independent basis, Debye-Ang):
   XX=            -85.9970   YY=            -96.7104   ZZ=            -96.6689
   XY=             -4.9265   XZ=            -10.6865   YZ=             -1.6820

  Exact polarizability: 219.245   1.153 131.696   5.072   0.590 102.907
 Approx polarizability: 336.196  16.832 246.862  21.063   8.429 193.758

                      1                      2                      3
                      A                      A                      A
 Frequencies --     27.2253                47.8221                50.4898
 Red. masses --      5.2991                 1.9279                 5.2819
 Frc consts  --      0.0023                 0.0026                 0.0079
 IR Inten    --      1.0618                 2.7158                 0.5821

                      4                      5                      6
                      A                      A                      A
 Frequencies --     85.1335               121.3223               137.0292
 Red. masses --      4.0927                 2.3768                 2.3568
 Frc consts  --      0.0175                 0.0206                 0.0261
 IR Inten    --      0.0598                 1.4599                 1.5391

                      7                      8                      9
                      A                      A                      A
 Frequencies --    155.7694               197.3248               205.0102
 Red. masses --      4.4460                 5.3129                 3.4904
 Frc consts  --      0.0636                 0.1219                 0.0864
 IR Inten    --      4.0552                13.2988                 2.3528

                     10                     11                     12
                      A                      A                      A
 Frequencies --    237.8978               257.2235               285.5255
 Red. masses --      5.2605                 1.2256                 9.3276
 Frc consts  --      0.1754                 0.0478                 0.4480
 IR Inten    --      2.5679                33.6485                14.4592

                     13                     14                     15
                      A                      A                      A
 Frequencies --    303.3149               349.0401               397.9673
 Red. masses --      5.8788                 4.1401                 4.9249
 Frc consts  --      0.3187                 0.2972                 0.4596
 IR Inten    --      6.9035                 0.4795                 8.2072

                     16                     17                     18
                      A                      A                      A
 Frequencies --    413.9872               482.2681               531.4531
 Red. masses --      4.7067                 3.5578                 6.4541
 Frc consts  --      0.4753                 0.4875                 1.0740
 IR Inten    --      3.1165                 6.5808                 1.4574

                     19                     20                     21
                      A                      A                      A
 Frequencies --    545.6783               582.7066               631.4293
 Red. masses --      6.1314                 6.1973                 4.0063
 Frc consts  --      1.0757                 1.2398                 0.9411
 IR Inten    --     18.6153                 4.9652                12.3413

                     22                     23                     24
                      A                      A                      A
 Frequencies --    671.0913               699.3818               751.3238
 Red. masses --      4.4827                 9.1811                 1.1141
 Frc consts  --      1.1895                 2.6459                 0.3705
 IR Inten    --      2.8172                 6.6198                 2.1012

                     25                     26                     27
                      A                      A                      A
 Frequencies --    761.4042               781.6159               803.0155
 Red. masses --      4.7509                 2.1256                 1.3133
 Frc consts  --      1.6228                 0.7651                 0.4989
 IR Inten    --      4.9007                16.5727                 6.5952

                     28                     29                     30
                      A                      A                      A
 Frequencies --    806.3450               859.2065               862.4640
 Red. masses --      2.6618                 1.8693                 2.0226
 Frc consts  --      1.0197                 0.8131                 0.8864
 IR Inten    --     51.4029                76.0519               125.3398

                     31                     32                     33
                      A                      A                      A
 Frequencies --    890.8484               929.5546               940.6510
 Red. masses --      1.9882                 4.2363                 1.6209
 Frc consts  --      0.9296                 2.1567                 0.8450
 IR Inten    --     13.9522                15.7494                 7.2032

                     34                     35                     36
                      A                      A                      A
 Frequencies --    967.8111               974.0530               974.7675
 Red. masses --      2.7908                 1.3874                 3.3551
 Frc consts  --      1.5402                 0.7756                 1.8782
 IR Inten    --     25.1453                 1.0525                30.5150

                     37                     38                     39
                      A                      A                      A
 Frequencies --   1006.8860              1026.0033              1046.9906
 Red. masses --      3.8899                 4.2025                 2.9766
 Frc consts  --      2.3235                 2.6065                 1.9224
 IR Inten    --     72.4162                 1.9615                 6.1625

                     40                     41                     42
                      A                      A                      A
 Frequencies --   1071.7897              1097.8251              1144.5535
 Red. masses --      2.0927                 2.8305                 1.8111
 Frc consts  --      1.4164                 2.0100                 1.3979
 IR Inten    --      5.2845                18.3943                15.3721

                     43                     44                     45
                      A                      A                      A
 Frequencies --   1157.8080              1198.5098              1227.0609
 Red. masses --      1.9472                 1.4731                 1.6122
 Frc consts  --      1.5380                 1.2467                 1.4302
 IR Inten    --      1.6884                13.1247                29.1212

                     46                     47                     48
                      A                      A                      A
 Frequencies --   1247.6947              1265.6224              1278.7797
 Red. masses --      1.3287                 1.8684                 1.7455
 Frc consts  --      1.2187                 1.7633                 1.6817
 IR Inten    --      3.1884               348.4247                33.8104

                     49                     50                     51
                      A                      A                      A
 Frequencies --   1295.2535              1308.2394              1320.8439
 Red. masses --      2.8153                 1.2447                 1.1368
 Frc consts  --      2.7828                 1.2551                 1.1685
 IR Inten    --    136.1805                34.2542                 1.4138

                     52                     53                     54
                      A                      A                      A
 Frequencies --   1336.3218              1347.0604              1374.9613
 Red. masses --      1.1584                 4.2357                 1.3748
 Frc consts  --      1.2188                 4.5284                 1.5313
 IR Inten    --      3.8147                81.1103                 3.1514

                     55                     56                     57
                      A                      A                      A
 Frequencies --   1389.2115              1410.2019              1433.3922
 Red. masses --      1.5497                 2.2057                 1.4883
 Frc consts  --      1.7621                 2.5845                 1.8016
 IR Inten    --     48.7613                18.6668                24.0894

                     58                     59                     60
                      A                      A                      A
 Frequencies --   1440.2161              1456.5955              1489.5155
 Red. masses --      5.1454                 4.0776                 1.0774
 Frc consts  --      6.2882                 5.0972                 1.4084
 IR Inten    --     22.8539                62.2348                 0.2252

                     61                     62                     63
                      A                      A                      A
 Frequencies --   1496.9999              1510.4992              1520.2794
 Red. masses --      1.1198                 1.2351                 1.1731
 Frc consts  --      1.4785                 1.6604                 1.5975
 IR Inten    --      3.7882                41.8159                42.0793

                     64                     65                     66
                      A                      A                      A
 Frequencies --   1529.1919              1660.6976              2935.2094
 Red. masses --      2.5367                 1.0890                 1.0725
 Frc consts  --      3.4949                 1.7696                 5.4442
 IR Inten    --    226.0199                22.2533                71.1505

                     67                     68                     69
                      A                      A                      A
 Frequencies --   3011.0432              3028.8423              3040.4534
 Red. masses --      1.0655                 1.0608                 1.0807
 Frc consts  --      5.6917                 5.7336                 5.8862
 IR Inten    --      8.8936                12.6290                28.5487

                     70                     71                     72
                      A                      A                      A
 Frequencies --   3045.1162              3057.7031              3078.2611
 Red. masses --      1.0655                 1.0972                 1.1010
 Frc consts  --      5.8209                 6.0440                 6.1468
 IR Inten    --     18.5444                 1.4581                44.0871

                     73                     74                     75
                      A                      A                      A
 Frequencies --   3110.9031              3129.3184              3155.6690
 Red. masses --      1.1033                 1.0844                 1.0890
 Frc consts  --      6.2907                 6.2564                 6.3892
 IR Inten    --     18.3898                 0.9196                 7.3489

                     76                     77                     78
                      A                      A                      A
 Frequencies --   3254.8096              3486.8881              3565.0273
 Red. masses --      1.0960                 1.0497                 1.0917
 Frc consts  --      6.8411                 7.5197                 8.1749
 IR Inten    --      1.4829                 0.6311                 0.1219

 - Thermochemistry -
 -------------------
 Temperature   298.150 Kelvin.  Pressure   1.00000 Atm.
 Atom     1 has atomic number  7 and mass  14.00307

 Molecular mass:   223.07793 amu.
 Principal axes and moments of inertia in atomic units:
                           1         2         3
     Eigenvalues --   928.796309269.470979800.23668
           X            0.99999  -0.00378  -0.00352
           Y            0.00374   0.99994  -0.01028
           Z            0.00356   0.01027   0.99994
 This molecule is an asymmetric top.
 Rotational symmetry number  1.
 Warning -- assumption of classical behavior for rotation
           may cause significant error
 Rotational temperatures (Kelvin)      0.09325     0.00934     0.00884
 Rotational constants (GHZ):           1.94310     0.19470     0.18415
 Zero-point vibrational energy     584420.0 (Joules/Mol)
                                  139.67974 (Kcal/Mol)
 Warning -- explicit consideration of  20 degrees of freedom as
           vibrations may cause significant error
 Vibrational temperatures:     39.17    68.81    72.64   122.49   174.56
          (Kelvin)            197.15   224.12   283.91   294.96   342.28
                              370.09   410.81   436.40   502.19   572.59
                              595.64   693.88   764.64   785.11   838.38
                              908.49   965.55  1006.25  1080.99  1095.49
                             1124.57  1155.36  1160.15  1236.21  1240.89
                             1281.73  1337.42  1353.39  1392.46  1401.45
                             1402.47  1448.68  1476.19  1506.39  1542.07
                             1579.53  1646.76  1665.83  1724.39  1765.47
                             1795.15  1820.95  1839.88  1863.58  1882.26
                             1900.40  1922.67  1938.12  1978.26  1998.77
                             2028.97  2062.33  2072.15  2095.72  2143.08
                             2153.85  2173.27  2187.34  2200.17  2389.37
                             4223.11  4332.22  4357.83  4374.53  4381.24
                             4399.35  4428.93  4475.90  4502.39  4540.30
                             4682.95  5016.85  5129.28

 Zero-point correction=                           0.222594 (Hartree/Particle)
 Thermal correction to Energy=                    0.237050
 Thermal correction to Enthalpy=                  0.237994
 Thermal correction to Gibbs Free Energy=         0.179508
 Sum of electronic and zero-point Energies=          -1026.173893
 Sum of electronic and thermal Energies=             -1026.159437
 Sum of electronic and thermal Enthalpies=           -1026.158493
 Sum of electronic and thermal Free Energies=        -1026.216978

                     E (Thermal)             CV                S
                      KCal/Mol        Cal/Mol-Kelvin    Cal/Mol-Kelvin
 Total                  148.751             53.925            123.094
 Electronic               0.000              0.000              0.000
 Translational            0.889              2.981             42.110
 Rotational               0.889              2.981             32.800
 Vibrational            146.974             47.963             48.184
 Vibration     1          0.593              1.984              6.022
 Vibration     2          0.595              1.978              4.905
 Vibration     3          0.595              1.977              4.798
 Vibration     4          0.601              1.959              3.769
 Vibration     5          0.609              1.931              3.079
 Vibration     6          0.614              1.916              2.845
 Vibration     7          0.620              1.896              2.601
 Vibration     8          0.637              1.844              2.158
 Vibration     9          0.640              1.833              2.088
 Vibration    10          0.656              1.783              1.819
 Vibration    11          0.667              1.751              1.681
 Vibration    12          0.683              1.701              1.500
 Vibration    13          0.695              1.667              1.399
 Vibration    14          0.726              1.577              1.171
 Vibration    15          0.764              1.474              0.970
 Vibration    16          0.778              1.440              0.913
 Vibration    17          0.839              1.289              0.704
 Vibration    18          0.886              1.180              0.584
 Vibration    19          0.901              1.149              0.553
 Vibration    20          0.940              1.069              0.480

                           ! Non-Optimized Parameters !
 Normal termination of Gaussian 16 at Thu May 18 15:06:24 2023.
