 Gaussian 16, Revision A.03,
 Gaussian 16:  ES64L-G16RevA.03 25-Dec-2016

 -----------------------------
 # opt freq b3lyp/6-31g(2df,p)
 -----------------------------

 -------------------
 Title Card Required
 -------------------
 Symbolic Z-matrix:
 Charge =  0 Multiplicity = 1

 SCF Done:  E(RB3LYP) =  -1121.61251475     A.U. after   20 cycles
 SCF Done:  E(RB3LYP) =  -1121.68758713     A.U. after   15 cycles
 SCF Done:  E(RB3LYP) =  -1121.79087408     A.U. after   15 cycles
 SCF Done:  E(RB3LYP) =  -1121.82397507     A.U. after   15 cycles
 SCF Done:  E(RB3LYP) =  -1121.87262981     A.U. after   14 cycles
 SCF Done:  E(RB3LYP) =  -1121.91955778     A.U. after   15 cycles
 SCF Done:  E(RB3LYP) =  -1121.94061567     A.U. after   15 cycles
 SCF Done:  E(RB3LYP) =  -1121.94982273     A.U. after   15 cycles
 SCF Done:  E(RB3LYP) =  -1121.95494937     A.U. after   14 cycles
 SCF Done:  E(RB3LYP) =  -1121.96221540     A.U. after   15 cycles
 SCF Done:  E(RB3LYP) =  -1121.97464018     A.U. after   12 cycles
 SCF Done:  E(RB3LYP) =  -1121.97470090     A.U. after   12 cycles
 SCF Done:  E(RB3LYP) =  -1121.97472185     A.U. after   11 cycles
 SCF Done:  E(RB3LYP) =  -1121.97473504     A.U. after   11 cycles
 SCF Done:  E(RB3LYP) =  -1121.97474080     A.U. after   10 cycles
 SCF Done:  E(RB3LYP) =  -1121.97474328     A.U. after    9 cycles
 SCF Done:  E(RB3LYP) =  -1121.97474364     A.U. after    8 cycles
 SCF Done:  E(RB3LYP) =  -1121.97474383     A.U. after    7 cycles
 SCF Done:  E(RB3LYP) =  -1121.97474389     A.U. after    7 cycles
 Optimization completed.
    -- Stationary point found.
 Normal termination of Gaussian 16 at Mon May 15 19:30:11 2023.

 ----------------------------------------------------------------------
 #N Geom=AllCheck Guess=TCheck SCRF=Check GenChk RB3LYP/6-31G(2df,p) Fr
 eq
 ----------------------------------------------------------------------

 Structure from the checkpoint file:  "Nd[SH]12CdC1CdCCdCC2dS.chk"
 -------------------
 Title Card Required
 -------------------
 Charge =  0 Multiplicity = 1

                         Standard orientation:
 ---------------------------------------------------------------------
 Center     Atomic      Atomic             Coordinates (Angstroms)
 Number     Number       Type             X           Y           Z
 ---------------------------------------------------------------------
      1          7           0       -0.925809   -2.155531   -0.389116
      2         16           0       -0.154517   -0.834342   -0.766068
      3          6           0        1.590058   -2.061873    0.871145
      4          6           0        1.348139   -0.907029    0.238167
      5          6           0        2.311902    0.172438    0.154969
      6          6           0        2.134000    1.487578   -0.101582
      7          6           0        0.925507    2.272515   -0.177181
      8          6           0       -0.386896    1.945291   -0.051233
      9          6           0       -1.015172    0.651623    0.036325
     10         16           0       -2.551922    0.407627    0.509990
     11          1           0       -1.441747   -2.427749   -1.224580
     12          1           0        0.848551   -2.852358    0.860597
     13          1           0        2.524815   -2.212240    1.401717
     14          1           0        3.334162   -0.149125    0.341955
     15          1           0        3.042735    2.080922   -0.151458
     16          1           0        1.116985    3.340641   -0.253058
     17          1           0       -1.087057    2.772803    0.022231
 ---------------------------------------------------------------------

 SCF Done:  E(RB3LYP) =  -1121.97474389     A.U. after    1 cycles

 The electronic state is 1-A.
 Alpha  occ. eigenvalues --  -88.97105 -88.86057 -14.28987 -10.26227 -10.23533
 Alpha  occ. eigenvalues --  -10.22640 -10.22620 -10.21670 -10.21527 -10.20748
 Alpha  occ. eigenvalues --   -8.02062  -7.92549  -5.98390  -5.98338  -5.97957
 Alpha  occ. eigenvalues --   -5.88856  -5.88819  -5.88079  -0.91654  -0.84929
 Alpha  occ. eigenvalues --   -0.82507  -0.78658  -0.74146  -0.68782  -0.65957
 Alpha  occ. eigenvalues --   -0.60548  -0.53949  -0.53630  -0.51187  -0.46688
 Alpha  occ. eigenvalues --   -0.44872  -0.44467  -0.43982  -0.40649  -0.39007
 Alpha  occ. eigenvalues --   -0.37927  -0.37242  -0.35837  -0.32309  -0.29666
 Alpha  occ. eigenvalues --   -0.25735  -0.23978  -0.22305  -0.21631
 Alpha virt. eigenvalues --   -0.11575  -0.04692   0.00995   0.03336   0.04231
 Alpha virt. eigenvalues --    0.05632   0.09083   0.10402   0.11370   0.13327
 Alpha virt. eigenvalues --    0.14748   0.15483   0.16647   0.18412   0.19440

 Mulliken charges:
               1
     1  N   -0.504532
     2  S    0.215294
     3  C   -0.362201
     4  C    0.204251
     5  C   -0.145781
     6  C   -0.089029
     7  C   -0.055707
     8  C   -0.137819
     9  C    0.118316
    10  S   -0.261408
    11  H    0.233955
    12  H    0.182462
    13  H    0.129164
    14  H    0.119532
    15  H    0.108283
    16  H    0.115336
    17  H    0.129884
 Sum of Mulliken charges =  -0.00000

 Dipole moment (field-independent basis, Debye):
    X=              4.1083    Y=              1.8442    Z=             -0.7486  Tot=              4.5650
 Quadrupole moment (field-independent basis, Debye-Ang):
   XX=            -69.7744   YY=            -68.3894   ZZ=            -72.3558
   XY=             -0.2288   XZ=              4.5816   YZ=             -0.2974

  Exact polarizability: 176.399  -5.803 148.743  -0.427  -8.461  69.247
 Approx polarizability: 365.873 -15.441 283.005 -14.052 -26.838 128.306

                      1                      2                      3
                      A                      A                      A
 Frequencies --     52.5296                74.0854               173.8134
 Red. masses --      5.3544                 3.9187                 6.4465
 Frc consts  --      0.0087                 0.0127                 0.1147
 IR Inten    --      0.7046                 0.6932                 2.3744

                      4                      5                      6
                      A                      A                      A
 Frequencies --    211.4243               259.4894               281.3803
 Red. masses --     10.0318                 2.9610                 5.3906
 Frc consts  --      0.2642                 0.1175                 0.2515
 IR Inten    --      0.2052                12.8649                 1.3460

                      7                      8                      9
                      A                      A                      A
 Frequencies --    305.7986               338.3289               362.8428
 Red. masses --      5.0142                 3.5376                 4.1165
 Frc consts  --      0.2763                 0.2386                 0.3193
 IR Inten    --      0.8856                 4.4736                 0.9430

                     10                     11                     12
                      A                      A                      A
 Frequencies --    391.6725               446.9376               478.6235
 Red. masses --      3.7102                 2.8859                 2.1945
 Frc consts  --      0.3353                 0.3396                 0.2962
 IR Inten    --      1.6263                 0.8354                 2.7807

                     13                     14                     15
                      A                      A                      A
 Frequencies --    537.4299               590.6811               609.3058
 Red. masses --      4.0468                 2.9919                 5.1133
 Frc consts  --      0.6887                 0.6150                 1.1185
 IR Inten    --     16.5197                20.0321                 6.6902

                     16                     17                     18
                      A                      A                      A
 Frequencies --    628.7043               711.0248               785.4911
 Red. masses --      3.7884                 1.2171                 1.5959
 Frc consts  --      0.8823                 0.3625                 0.5802
 IR Inten    --      1.0428                11.4974                14.1260

                     19                     20                     21
                      A                      A                      A
 Frequencies --    815.1985               859.1024               875.5360
 Red. masses --      4.3212                 1.4991                 2.8285
 Frc consts  --      1.6919                 0.6519                 1.2775
 IR Inten    --      0.6206                 1.8765                 1.1035

                     22                     23                     24
                      A                      A                      A
 Frequencies --    949.5846               976.3896               980.2625
 Red. masses --      5.6532                 1.6280                 2.0043
 Frc consts  --      3.0034                 0.9144                 1.1347
 IR Inten    --     87.6436                29.7449                15.6611

                     25                     26                     27
                      A                      A                      A
 Frequencies --    996.2807              1018.4189              1041.4005
 Red. masses --      1.3287                 1.3160                 3.8216
 Frc consts  --      0.7770                 0.8042                 2.4419
 IR Inten    --      2.8868                 2.6673                52.1250

                     28                     29                     30
                      A                      A                      A
 Frequencies --   1172.2475              1184.0923              1234.0118
 Red. masses --      1.1966                 2.4040                 2.8523
 Frc consts  --      0.9688                 1.9859                 2.5591
 IR Inten    --     42.5278                22.4464                64.5777

                     31                     32                     33
                      A                      A                      A
 Frequencies --   1298.1221              1319.1725              1385.2549
 Red. masses --      1.1723                 1.1817                 1.2163
 Frc consts  --      1.1639                 1.2116                 1.3751
 IR Inten    --      8.9073                 1.2204                22.1376

                     34                     35                     36
                      A                      A                      A
 Frequencies --   1438.7147              1474.6531              1592.1226
 Red. masses --      1.4197                 1.6189                 8.2146
 Frc consts  --      1.7314                 2.0742                12.2684
 IR Inten    --     27.5449                13.4046                79.5276

                     37                     38                     39
                      A                      A                      A
 Frequencies --   1626.5458              1675.5505              3142.6545
 Red. masses --      4.9255                 5.6858                 1.0820
 Frc consts  --      7.6777                 9.4050                 6.2960
 IR Inten    --      3.0385                20.4896                 2.1990

                     40                     41                     42
                      A                      A                      A
 Frequencies --   3147.7369              3151.1932              3167.4229
 Red. masses --      1.0707                 1.0733                 1.0901
 Frc consts  --      6.2505                 6.2793                 6.4435
 IR Inten    --      4.0325                 5.0180                 8.4068

                     43                     44                     45
                      A                      A                      A
 Frequencies --   3175.7626              3252.6408              3503.9372
 Red. masses --      1.0926                 1.1159                 1.0748
 Frc consts  --      6.4922                 6.9559                 7.7748
 IR Inten    --     20.2782                 4.1549                14.6861

 - Thermochemistry -
 -------------------
 Temperature   298.150 Kelvin.  Pressure   1.00000 Atm.
 Atom     1 has atomic number  7 and mass  14.00307

 Molecular mass:   169.00199 amu.
 Principal axes and moments of inertia in atomic units:
                           1         2         3
     Eigenvalues --  1355.158251758.528482798.61521
           X            0.99970   0.01863   0.01570
           Y           -0.01844   0.99975  -0.01252
           Z           -0.01593   0.01223   0.99980
 This molecule is an asymmetric top.
 Rotational symmetry number  1.
 Warning -- assumption of classical behavior for rotation
           may cause significant error
 Rotational temperatures (Kelvin)      0.06391     0.04925     0.03095
 Rotational constants (GHZ):           1.33176     1.02628     0.64487
 Zero-point vibrational energy     321158.9 (Joules/Mol)
                                   76.75882 (Kcal/Mol)
 Warning -- explicit consideration of  15 degrees of freedom as
           vibrations may cause significant error
 Vibrational temperatures:     75.58   106.59   250.08   304.19   373.35
          (Kelvin)            404.84   439.98   486.78   522.05   563.53
                              643.04   688.63   773.24   849.86   876.66
                              904.57  1023.01  1130.15  1172.89  1236.06
                             1259.70  1366.24  1404.81  1410.38  1433.43
                             1465.28  1498.34  1686.60  1703.64  1775.47
                             1867.71  1898.00  1993.07  2069.99  2121.70
                             2290.71  2340.24  2410.74  4521.58  4528.89
                             4533.86  4557.22  4569.21  4679.82  5041.38

 Zero-point correction=                           0.122323 (Hartree/Particle)
 Thermal correction to Energy=                    0.132172
 Thermal correction to Enthalpy=                  0.133116
 Thermal correction to Gibbs Free Energy=         0.086604
 Sum of electronic and zero-point Energies=          -1121.852421
 Sum of electronic and thermal Energies=             -1121.842572
 Sum of electronic and thermal Enthalpies=           -1121.841628
 Sum of electronic and thermal Free Energies=        -1121.888140

                     E (Thermal)             CV                S
                      KCal/Mol        Cal/Mol-Kelvin    Cal/Mol-Kelvin
 Total                   82.939             37.076             97.892
 Electronic               0.000              0.000              0.000
 Translational            0.889              2.981             41.282
 Rotational               0.889              2.981             30.279
 Vibrational             81.162             31.114             26.331
 Vibration     1          0.596              1.977              4.720
 Vibration     2          0.599              1.966              4.042
 Vibration     3          0.627              1.875              2.394
 Vibration     4          0.643              1.823              2.031
 Vibration     5          0.668              1.747              1.665
 Vibration     6          0.681              1.708              1.525
 Vibration     7          0.696              1.663              1.385
 Vibration     8          0.719              1.599              1.220
 Vibration     9          0.737              1.549              1.110
 Vibration    10          0.759              1.488              0.994
 Vibration    11          0.806              1.368              0.805
 Vibration    12          0.835              1.297              0.714
 Vibration    13          0.892              1.167              0.571
 Vibration    14          0.948              1.052              0.466
 Vibration    15          0.968              1.012              0.434

                           ! Non-Optimized Parameters !
 Normal termination of Gaussian 16 at Mon May 15 19:59:57 2023.
