 Gaussian 16, Revision A.03,
 Gaussian 16:  ES64L-G16RevA.03 25-Dec-2016

 -----------------------------
 # opt freq b3lyp/6-31g(2df,p)
 -----------------------------

 -------------------
 Title Card Required
 -------------------
 Symbolic Z-matrix:
 Charge =  0 Multiplicity = 1

 SCF Done:  E(RB3LYP) =  -2387.95758907     A.U. after   16 cycles
 SCF Done:  E(RB3LYP) =  -2387.98004217     A.U. after   14 cycles
 SCF Done:  E(RB3LYP) =  -2387.98574106     A.U. after   14 cycles
 SCF Done:  E(RB3LYP) =  -2387.98783690     A.U. after   14 cycles
 SCF Done:  E(RB3LYP) =  -2387.98998582     A.U. after   13 cycles
 SCF Done:  E(RB3LYP) =  -2387.99097539     A.U. after   13 cycles
 SCF Done:  E(RB3LYP) =  -2387.99218242     A.U. after   14 cycles
 SCF Done:  E(RB3LYP) =  -2387.99324165     A.U. after   13 cycles
 SCF Done:  E(RB3LYP) =  -2387.99447648     A.U. after   13 cycles
 SCF Done:  E(RB3LYP) =  -2387.99577538     A.U. after   14 cycles
 SCF Done:  E(RB3LYP) =  -2388.00750788     A.U. after   13 cycles
 SCF Done:  E(RB3LYP) =  -2388.00783251     A.U. after   13 cycles
 SCF Done:  E(RB3LYP) =  -2388.00780741     A.U. after   14 cycles
 SCF Done:  E(RB3LYP) =  -2388.00808469     A.U. after   13 cycles
 SCF Done:  E(RB3LYP) =  -2388.00810241     A.U. after    9 cycles
 SCF Done:  E(RB3LYP) =  -2388.00810765     A.U. after   10 cycles
 SCF Done:  E(RB3LYP) =  -2388.00810858     A.U. after    8 cycles
 SCF Done:  E(RB3LYP) =  -2388.00810892     A.U. after    8 cycles
 SCF Done:  E(RB3LYP) =  -2388.00810903     A.U. after    7 cycles
 Optimization completed.
    -- Stationary point found.
 Normal termination of Gaussian 16 at Tue May 16 19:59:07 2023.

 ----------------------------------------------------------------------
 #N Geom=AllCheck Guess=TCheck SCRF=Check GenChk RB3LYP/6-31G(2df,p) Fr
 eq
 ----------------------------------------------------------------------

 Structure from the checkpoint file:  "NdC1CdCCqdSrSNSSNCdCS1.chk"
 -------------------
 Title Card Required
 -------------------
 Charge =  0 Multiplicity = 1

                         Standard orientation:
 ---------------------------------------------------------------------
 Center     Atomic      Atomic             Coordinates (Angstroms)
 Number     Number       Type             X           Y           Z
 ---------------------------------------------------------------------
      1          7           0        4.268368    1.199303   -0.254297
      2          6           0        3.009552    1.049147   -0.097211
      3          6           0        2.391244   -0.264827    0.151217
      4          6           0        1.185321   -0.703670   -0.250304
      5          6           0        0.748985   -2.076325   -0.019458
      6         16           0        1.651459   -3.337241    0.537690
      7         16           0       -0.915001   -2.533696   -0.363341
      8          7           0       -1.749150   -1.110517   -0.873552
      9         16           0       -2.952515   -0.531167    0.270834
     10         16           0       -3.139914    1.490647   -0.088849
     11          7           0       -1.851257    2.324850    0.632412
     12          6           0       -0.608240    2.313457    0.008350
     13          6           0        0.579290    2.319060    0.626640
     14         16           0        2.058243    2.558824   -0.309772
     15          1           0        4.751819    0.299141   -0.196187
     16          1           0        3.042091   -0.971575    0.665275
     17          1           0        0.486085   -0.054761   -0.759749
     18          1           0       -2.173301   -1.281389   -1.781079
     19          1           0       -1.846560    2.324915    1.645808
     20          1           0       -0.671496    2.322988   -1.075619
     21          1           0        0.662360    2.286293    1.709216
 ---------------------------------------------------------------------

 SCF Done:  E(RB3LYP) =  -2388.00810903     A.U. after    1 cycles

 The electronic state is 1-A.
 Alpha  occ. eigenvalues --  -88.94780 -88.94477 -88.93889 -88.89705 -88.86367
 Alpha  occ. eigenvalues --  -14.39981 -14.39843 -14.33269 -10.29058 -10.27340
 Alpha  occ. eigenvalues --  -10.25238 -10.23297 -10.22712 -10.22167  -8.00564
 Alpha  occ. eigenvalues --   -8.00264  -7.99820  -7.95870  -7.92914  -5.97167
 Alpha  occ. eigenvalues --   -5.96873  -5.96703  -5.96384  -5.96295  -5.96037
 Alpha  occ. eigenvalues --   -5.95974  -5.95855  -5.95282  -5.92353  -5.91981
 Alpha  occ. eigenvalues --   -5.91456  -5.89258  -5.89066  -5.88511  -0.97353
 Alpha  occ. eigenvalues --   -0.95072  -0.93090  -0.86047  -0.82270  -0.80027
 Alpha  occ. eigenvalues --   -0.77074  -0.73173  -0.70109  -0.66158  -0.65203
 Alpha  occ. eigenvalues --   -0.62418  -0.56600  -0.54468  -0.52580  -0.52528
 Alpha  occ. eigenvalues --   -0.52003  -0.48986  -0.45903  -0.44827  -0.43318
 Alpha  occ. eigenvalues --   -0.42769  -0.41542  -0.39922  -0.39451  -0.38198
 Alpha  occ. eigenvalues --   -0.37048  -0.35048  -0.34218  -0.30755  -0.30181
 Alpha  occ. eigenvalues --   -0.28700  -0.28354  -0.26748  -0.25908  -0.24885
 Alpha  occ. eigenvalues --   -0.23907  -0.23187
 Alpha virt. eigenvalues --   -0.11681  -0.04794  -0.03610  -0.02629  -0.00789
 Alpha virt. eigenvalues --   -0.00141   0.02009   0.04296   0.04960   0.05732
 Alpha virt. eigenvalues --    0.06812   0.07479   0.08828   0.09440   0.11434

 Mulliken charges:
               1
     1  N   -0.452233
     2  C    0.268558
     3  C   -0.114604
     4  C   -0.127329
     5  C    0.195620
     6  S   -0.306917
     7  S    0.047847
     8  N   -0.335854
     9  S    0.007182
    10  S   -0.015303
    11  N   -0.283609
    12  C    0.088746
    13  C   -0.205991
    14  S   -0.099076
    15  H    0.235479
    16  H    0.147352
    17  H    0.143222
    18  H    0.278664
    19  H    0.267626
    20  H    0.144401
    21  H    0.116222
 Sum of Mulliken charges =  -0.00000

 Dipole moment (field-independent basis, Debye):
    X=             -2.9619    Y=              0.6536    Z=              0.1188  Tot=              3.0355
 Quadrupole moment (field-independent basis, Debye-Ang):
   XX=           -123.3032   YY=           -130.1933   ZZ=           -110.3789
   XY=             -6.9788   XZ=              3.4531   YZ=              7.5072

  Exact polarizability: 259.173  -3.794 225.854   9.299  -7.119 107.982
 Approx polarizability: 454.151  -8.401 390.551  33.373 -20.243 205.271

                      1                      2                      3
                      A                      A                      A
 Frequencies --     33.9980                54.4352                81.4640
 Red. masses --      8.8075                16.5551                11.0167
 Frc consts  --      0.0060                 0.0289                 0.0431
 IR Inten    --      0.2555                 0.2559                 0.3162

                      4                      5                      6
                      A                      A                      A
 Frequencies --     91.2101               123.6107               137.6415
 Red. masses --      6.9422                 6.8411                 6.9658
 Frc consts  --      0.0340                 0.0616                 0.0778
 IR Inten    --      3.4634                 5.5219                 1.5387

                      7                      8                      9
                      A                      A                      A
 Frequencies --    154.1856               167.5623               185.8274
 Red. masses --      2.7138                 4.2365                 8.6842
 Frc consts  --      0.0380                 0.0701                 0.1767
 IR Inten    --      0.8029                 1.6210                 5.8594

                     10                     11                     12
                      A                      A                      A
 Frequencies --    210.0469               218.3444               235.7981
 Red. masses --      5.5026                13.2636                 4.5035
 Frc consts  --      0.1430                 0.3726                 0.1475
 IR Inten    --      7.9737                 2.3461                 2.8950

                     13                     14                     15
                      A                      A                      A
 Frequencies --    270.3928               311.0962               334.6738
 Red. masses --      7.8505                 5.1238                 9.6074
 Frc consts  --      0.3382                 0.2922                 0.6340
 IR Inten    --      1.3742                 9.1558                 3.7695

                     16                     17                     18
                      A                      A                      A
 Frequencies --    363.2540               376.7898               433.3690
 Red. masses --      6.3614                 7.2088                 5.8348
 Frc consts  --      0.4946                 0.6030                 0.6456
 IR Inten    --      5.6930                 2.6372                 1.7376

                     19                     20                     21
                      A                      A                      A
 Frequencies --    462.8874               479.2498               485.3291
 Red. masses --      6.6246                10.1116                 5.6273
 Frc consts  --      0.8363                 1.3683                 0.7809
 IR Inten    --      9.0681                 1.1518                 5.5607

                     22                     23                     24
                      A                      A                      A
 Frequencies --    521.0672               531.6552               605.3568
 Red. masses --      7.8170                 3.9566                 1.6247
 Frc consts  --      1.2505                 0.6589                 0.3508
 IR Inten    --      2.2178                22.8443                92.8642

                     25                     26                     27
                      A                      A                      A
 Frequencies --    617.1919               643.8629               725.9655
 Red. masses --      6.0109                 4.6875                 7.5238
 Frc consts  --      1.3490                 1.1449                 2.3363
 IR Inten    --     15.0702                26.2883                72.9190

                     28                     29                     30
                      A                      A                      A
 Frequencies --    747.8463               787.5932               815.4396
 Red. masses --      4.9841                 4.3412                 1.7864
 Frc consts  --      1.6423                 1.5866                 0.6998
 IR Inten    --     11.8602                43.5401                28.4849

                     31                     32                     33
                      A                      A                      A
 Frequencies --    821.7624               843.1177               912.8625
 Red. masses --      1.7228                 1.3132                 3.2442
 Frc consts  --      0.6855                 0.5500                 1.5928
 IR Inten    --     27.0028                33.7462                15.6186

                     34                     35                     36
                      A                      A                      A
 Frequencies --    920.4237               930.5971               997.6345
 Red. masses --      3.9451                 2.0628                 1.1620
 Frc consts  --      1.9692                 1.0525                 0.6814
 IR Inten    --    153.6436                53.6966                31.7263

                     37                     38                     39
                      A                      A                      A
 Frequencies --   1016.0859              1079.7511              1180.4825
 Red. masses --      1.1134                 2.3886                 3.9550
 Frc consts  --      0.6773                 1.6407                 3.2472
 IR Inten    --     40.6250                57.6195               111.7893

                     40                     41                     42
                      A                      A                      A
 Frequencies --   1232.2132              1236.2101              1273.6722
 Red. masses --      1.4047                 4.1814                 1.4595
 Frc consts  --      1.2566                 3.7649                 1.3949
 IR Inten    --     44.1265               109.7834               101.9137

                     43                     44                     45
                      A                      A                      A
 Frequencies --   1304.3646              1309.8520              1328.3034
 Red. masses --      1.1063                 1.6335                 1.2352
 Frc consts  --      1.1090                 1.6513                 1.2840
 IR Inten    --     14.9559                26.3661                 6.5809

                     46                     47                     48
                      A                      A                      A
 Frequencies --   1334.1524              1389.4533              1620.2196
 Red. masses --      1.2660                 1.2632                 8.9079
 Frc consts  --      1.3277                 1.4369                13.7776
 IR Inten    --     30.7390                 7.6059               110.4306

                     49                     50                     51
                      A                      A                      A
 Frequencies --   1650.1082              1670.6488              3137.8217
 Red. masses --      6.1608                 5.3166                 1.0875
 Frc consts  --      9.8835                 8.7429                 6.3087
 IR Inten    --     37.2510               117.0339                 1.4636

                     52                     53                     54
                      A                      A                      A
 Frequencies --   3161.7166              3188.0993              3233.3051
 Red. masses --      1.0909                 1.0901                 1.0882
 Frc consts  --      6.4248                 6.5280                 6.7030
 IR Inten    --     16.0370                 1.9417                 3.5642

                     55                     56                     57
                      A                      A                      A
 Frequencies --   3436.0989              3513.0086              3555.8567
 Red. masses --      1.0744                 1.0762                 1.0754
 Frc consts  --      7.4739                 7.8251                 8.0113
 IR Inten    --      1.5807                38.6817                25.4891

 - Thermochemistry -
 -------------------
 Temperature   298.150 Kelvin.  Pressure   1.00000 Atm.
 Atom     1 has atomic number  7 and mass  14.00307

 Molecular mass:   280.92436 amu.
 Principal axes and moments of inertia in atomic units:
                           1         2         3
     Eigenvalues --  4414.983465332.630079367.41022
           X            0.99993  -0.01198   0.00243
           Y            0.01196   0.99991   0.00596
           Z           -0.00250  -0.00593   0.99998
 This molecule is an asymmetric top.
 Rotational symmetry number  1.
 Warning -- assumption of classical behavior for rotation
           may cause significant error
 Rotational temperatures (Kelvin)      0.01962     0.01624     0.00925
 Rotational constants (GHZ):           0.40878     0.33843     0.19266
 Zero-point vibrational energy     349817.8 (Joules/Mol)
                                   83.60846 (Kcal/Mol)
 Warning -- explicit consideration of  25 degrees of freedom as
           vibrations may cause significant error
 Vibrational temperatures:     48.92    78.32   117.21   131.23   177.85
          (Kelvin)            198.04   221.84   241.08   267.36   302.21
                              314.15   339.26   389.03   447.60   481.52
                              522.64   542.12   623.52   665.99   689.53
                              698.28   749.70   764.93   870.97   888.00
                              926.38  1044.50  1075.98  1133.17  1173.24
                             1182.33  1213.06  1313.41  1324.28  1338.92
                             1435.37  1461.92  1553.52  1698.45  1772.88
                             1778.63  1832.53  1876.69  1884.58  1911.13
                             1919.55  1999.11  2331.13  2374.14  2403.69
                             4514.63  4549.01  4586.96  4652.00  4943.78
                             5054.44  5116.08

 Zero-point correction=                           0.133239 (Hartree/Particle)
 Thermal correction to Energy=                    0.148704
 Thermal correction to Enthalpy=                  0.149648
 Thermal correction to Gibbs Free Energy=         0.089127
 Sum of electronic and zero-point Energies=          -2387.874870
 Sum of electronic and thermal Energies=             -2387.859405
 Sum of electronic and thermal Enthalpies=           -2387.858461
 Sum of electronic and thermal Free Energies=        -2387.918982

                     E (Thermal)             CV                S
                      KCal/Mol        Cal/Mol-Kelvin    Cal/Mol-Kelvin
 Total                   93.313             55.464            127.377
 Electronic               0.000              0.000              0.000
 Translational            0.889              2.981             42.797
 Rotational               0.889              2.981             33.755
 Vibrational             91.536             49.502             50.825
 Vibration     1          0.594              1.983              5.581
 Vibration     2          0.596              1.976              4.649
 Vibration     3          0.600              1.962              3.855
 Vibration     4          0.602              1.955              3.634
 Vibration     5          0.610              1.929              3.043
 Vibration     6          0.614              1.916              2.836
 Vibration     7          0.620              1.898              2.620
 Vibration     8          0.624              1.882              2.463
 Vibration     9          0.632              1.859              2.269
 Vibration    10          0.642              1.825              2.043
 Vibration    11          0.646              1.813              1.973
 Vibration    12          0.655              1.786              1.834
 Vibration    13          0.674              1.728              1.594
 Vibration    14          0.700              1.653              1.356
 Vibration    15          0.716              1.606              1.237
 Vibration    16          0.737              1.548              1.108
 Vibration    17          0.747              1.520              1.052
 Vibration    18          0.794              1.398              0.848
 Vibration    19          0.821              1.332              0.758
 Vibration    20          0.836              1.296              0.712
 Vibration    21          0.841              1.283              0.696
 Vibration    22          0.876              1.203              0.607
 Vibration    23          0.887              1.180              0.584
 Vibration    24          0.964              1.020              0.441
 Vibration    25          0.977              0.996              0.421

                           ! Non-Optimized Parameters !
 Normal termination of Gaussian 16 at Tue May 16 21:08:29 2023.
