 Gaussian 16, Revision A.03,
 Gaussian 16:  ES64L-G16RevA.03 25-Dec-2016

 -----------------------------
 # opt freq b3lyp/6-31g(2df,p)
 -----------------------------

 -------------------
 Title Card Required
 -------------------
 Symbolic Z-matrix:
 Charge =  0 Multiplicity = 1

 SCF Done:  E(RB3LYP) =  -1040.87674041     A.U. after   19 cycles
 SCF Done:  E(RB3LYP) =  -1040.94876540     A.U. after   14 cycles
 SCF Done:  E(RB3LYP) =  -1041.02337803     A.U. after   16 cycles
 SCF Done:  E(RB3LYP) =  -1041.07445057     A.U. after   14 cycles
 SCF Done:  E(RB3LYP) =  -1041.10031500     A.U. after   13 cycles
 SCF Done:  E(RB3LYP) =  -1041.10657361     A.U. after   13 cycles
 SCF Done:  E(RB3LYP) =  -1041.10870373     A.U. after   13 cycles
 SCF Done:  E(RB3LYP) =  -1041.11055467     A.U. after   13 cycles
 SCF Done:  E(RB3LYP) =  -1041.11327243     A.U. after   13 cycles
 SCF Done:  E(RB3LYP) =  -1041.11560223     A.U. after   13 cycles
 SCF Done:  E(RB3LYP) =  -1041.11683753     A.U. after   12 cycles
 SCF Done:  E(RB3LYP) =  -1041.11693187     A.U. after   11 cycles
 SCF Done:  E(RB3LYP) =  -1041.11697688     A.U. after   10 cycles
 SCF Done:  E(RB3LYP) =  -1041.11699715     A.U. after   10 cycles
 SCF Done:  E(RB3LYP) =  -1041.11700080     A.U. after    8 cycles
 SCF Done:  E(RB3LYP) =  -1041.11700159     A.U. after    8 cycles
 SCF Done:  E(RB3LYP) =  -1041.11700195     A.U. after    7 cycles
 SCF Done:  E(RB3LYP) =  -1041.11700204     A.U. after    7 cycles
 SCF Done:  E(RB3LYP) =  -1041.11700209     A.U. after    7 cycles
 Optimization completed.
    -- Stationary point found.
 Normal termination of Gaussian 16 at Fri May 19 18:13:08 2023.

 ----------------------------------------------------------------------
 #N Geom=AllCheck Guess=TCheck SCRF=Check GenChk RB3LYP/6-31G(2df,p) Fr
 eq
 ----------------------------------------------------------------------

 Structure from the checkpoint file:  "NdC1CdC2CdCNdCN2CdCc2scnc21.chk"
 -------------------
 Title Card Required
 -------------------
 Charge =  0 Multiplicity = 1

                         Standard orientation:
 ---------------------------------------------------------------------
 Center     Atomic      Atomic             Coordinates (Angstroms)
 Number     Number       Type             X           Y           Z
 ---------------------------------------------------------------------
      1          7           0       -1.009490    2.847916   -0.293148
      2          6           0       -0.642237    1.626147   -0.100737
      3          6           0        0.807699    1.502779    0.211698
      4          6           0        1.878670    0.649302    0.126139
      5          6           0        3.226092    1.061643    0.456453
      6          6           0        4.268388    0.208514    0.332905
      7          7           0        4.158477   -1.099606   -0.115664
      8          6           0        2.960825   -1.472478   -0.417761
      9          7           0        1.844956   -0.698054   -0.308933
     10          6           0        0.524573   -1.067478   -0.653092
     11          6           0       -0.349405   -1.386650    0.306436
     12          6           0       -1.654825   -0.788273    0.147689
     13         16           0       -3.232976   -1.487444    0.285798
     14          6           0       -3.901232    0.087100   -0.037397
     15          7           0       -3.034511    1.031671   -0.206818
     16          6           0       -1.738758    0.572247   -0.091043
     17          1           0       -2.018825    2.882960   -0.447483
     18          1           0        1.138260    2.498995    0.490558
     19          1           0        3.375139    2.075714    0.806854
     20          1           0        5.275835    0.523996    0.584001
     21          1           0        2.773559   -2.479358   -0.782764
     22          1           0        0.182606   -0.690953   -1.614041
     23          1           0       -0.020806   -1.772044    1.267886
     24          1           0       -4.972916    0.229192   -0.093574
 ---------------------------------------------------------------------

 SCF Done:  E(RB3LYP) =  -1041.11700209     A.U. after    1 cycles

 The electronic state is 1-A.
 Alpha  occ. eigenvalues --  -88.93351 -14.40516 -14.35122 -14.32700 -14.29132
 Alpha  occ. eigenvalues --  -10.27573 -10.26757 -10.24931 -10.24507 -10.24364
 Alpha  occ. eigenvalues --  -10.24302 -10.23868 -10.22720 -10.22507 -10.19890
 Alpha  occ. eigenvalues --  -10.17656  -7.99557  -5.95918  -5.95575  -5.95369
 Alpha  occ. eigenvalues --   -1.02055  -0.98486  -0.92548  -0.89081  -0.84594
 Alpha  occ. eigenvalues --   -0.81568  -0.79362  -0.74731  -0.73017  -0.68361
 Alpha  occ. eigenvalues --   -0.65691  -0.62834  -0.60506  -0.58848  -0.55459
 Alpha  occ. eigenvalues --   -0.54562  -0.52964  -0.50988  -0.47966  -0.47446
 Alpha  occ. eigenvalues --   -0.46268  -0.45743  -0.43296  -0.42739  -0.41913
 Alpha  occ. eigenvalues --   -0.41485  -0.40037  -0.39009  -0.36165  -0.34633
 Alpha  occ. eigenvalues --   -0.32609  -0.30985  -0.30443  -0.29496  -0.28729
 Alpha  occ. eigenvalues --   -0.27292  -0.25135  -0.25015  -0.19132
 Alpha virt. eigenvalues --   -0.07056  -0.04660  -0.02709  -0.02000  -0.00155
 Alpha virt. eigenvalues --    0.01665   0.08599   0.09025   0.10643   0.11420
 Alpha virt. eigenvalues --    0.11865   0.12152   0.12618   0.14569   0.16126

 Mulliken charges:
               1
     1  N   -0.497265
     2  C    0.158600
     3  C   -0.185710
     4  C    0.297895
     5  C   -0.161612
     6  C   -0.016477
     7  N   -0.307970
     8  C    0.098387
     9  N   -0.154541
    10  C   -0.120780
    11  C   -0.206014
    12  C    0.056406
    13  S   -0.033191
    14  C   -0.065127
    15  N   -0.230612
    16  C    0.227253
    17  H    0.233061
    18  H    0.108970
    19  H    0.116638
    20  H    0.117119
    21  H    0.135881
    22  H    0.138562
    23  H    0.135467
    24  H    0.155061
 Sum of Mulliken charges =  -0.00000

 Dipole moment (field-independent basis, Debye):
    X=             -1.7079    Y=             -3.2771    Z=              0.3434  Tot=              3.7113
 Quadrupole moment (field-independent basis, Debye-Ang):
   XX=            -92.1956   YY=           -105.3627   ZZ=            -96.7443
   XY=              8.1325   XZ=              1.0638   YZ=              1.8629

  Exact polarizability: 255.925 -16.262 168.655   2.281  -0.028  80.581
 Approx polarizability: 406.515 -69.428 352.766  -1.986  -6.769 147.972

                      1                      2                      3
                      A                      A                      A
 Frequencies --     48.2875                70.3561               110.7243
 Red. masses --      5.1039                 6.3235                 7.8886
 Frc consts  --      0.0070                 0.0184                 0.0570
 IR Inten    --      0.7738                 0.6462                 0.2653

                      4                      5                      6
                      A                      A                      A
 Frequencies --    152.8890               177.2101               216.3293
 Red. masses --      6.8357                 3.6991                 3.7874
 Frc consts  --      0.0941                 0.0684                 0.1044
 IR Inten    --      0.0887                 1.1607                 2.7226

                      7                      8                      9
                      A                      A                      A
 Frequencies --    250.7509               289.7496               316.2762
 Red. masses --      7.0133                 6.3791                 3.7492
 Frc consts  --      0.2598                 0.3155                 0.2210
 IR Inten    --      0.6834                 0.7532                 0.1616

                     10                     11                     12
                      A                      A                      A
 Frequencies --    364.2261               391.3662               412.3606
 Red. masses --      3.6213                 5.1897                 3.9524
 Frc consts  --      0.2830                 0.4683                 0.3960
 IR Inten    --      0.6023                 3.3466                 5.0227

                     13                     14                     15
                      A                      A                      A
 Frequencies --    440.0504               501.9399               534.9447
 Red. masses --      6.0663                 5.6530                 4.1459
 Frc consts  --      0.6921                 0.8391                 0.6990
 IR Inten    --      1.7249                 7.0484                 5.7078

                     16                     17                     18
                      A                      A                      A
 Frequencies --    551.9864               559.0171               601.8950
 Red. masses --      5.6735                 6.1340                 5.7378
 Frc consts  --      1.0185                 1.1294                 1.2247
 IR Inten    --      2.1288                 6.4066                 1.3191

                     19                     20                     21
                      A                      A                      A
 Frequencies --    661.9361               675.5727               677.3662
 Red. masses --      7.8561                 7.4257                 6.2107
 Frc consts  --      2.0281                 1.9968                 1.6789
 IR Inten    --     21.8048                 3.1962                 2.2054

                     22                     23                     24
                      A                      A                      A
 Frequencies --    721.5283               747.5485               771.2964
 Red. masses --      4.4509                 3.8871                 5.0852
 Frc consts  --      1.3652                 1.2798                 1.7824
 IR Inten    --      1.7178                 8.8617                16.2673

                     25                     26                     27
                      A                      A                      A
 Frequencies --    788.9427               819.8861               827.3081
 Red. masses --      4.4678                 1.3042                 1.6393
 Frc consts  --      1.6385                 0.5165                 0.6611
 IR Inten    --     15.6716                12.5157                40.1764

                     28                     29                     30
                      A                      A                      A
 Frequencies --    845.7091               852.7328               877.3189
 Red. masses --      2.3498                 4.5588                 1.5395
 Frc consts  --      0.9902                 1.9531                 0.6982
 IR Inten    --     71.7486                 4.4884                56.6602

                     31                     32                     33
                      A                      A                      A
 Frequencies --    911.0592               933.8865               946.7236
 Red. masses --      5.1136                 3.8307                 1.3246
 Frc consts  --      2.5007                 1.9684                 0.6995
 IR Inten    --     14.1280                38.1220                28.4219

                     34                     35                     36
                      A                      A                      A
 Frequencies --    958.5278               964.5132               995.4070
 Red. masses --      1.3607                 1.2386                 1.3664
 Frc consts  --      0.7366                 0.6789                 0.7977
 IR Inten    --      1.4500                21.3555                 0.3657

                     37                     38                     39
                      A                      A                      A
 Frequencies --   1035.1380              1082.9713              1184.6180
 Red. masses --      2.8915                 3.6692                 3.7622
 Frc consts  --      1.8254                 2.5355                 3.1107
 IR Inten    --     28.7790               116.9489                17.8187

                     40                     41                     42
                      A                      A                      A
 Frequencies --   1198.4836              1224.7373              1237.6532
 Red. masses --      2.2385                 1.4276                 1.5465
 Frc consts  --      1.8944                 1.2617                 1.3957
 IR Inten    --      6.1440                11.0148                53.4478

                     43                     44                     45
                      A                      A                      A
 Frequencies --   1256.2001              1311.8890              1316.6808
 Red. masses --      2.7012                 1.8669                 2.0122
 Frc consts  --      2.5114                 1.8931                 2.0554
 IR Inten    --      5.4638                27.5407                15.9725

                     46                     47                     48
                      A                      A                      A
 Frequencies --   1332.3275              1369.3667              1383.6186
 Red. masses --      2.0550                 1.2898                 1.9561
 Frc consts  --      2.1493                 1.4250                 2.2063
 IR Inten    --     19.2726                15.8937                81.0969

                     49                     50                     51
                      A                      A                      A
 Frequencies --   1404.4088              1425.9415              1446.1356
 Red. masses --      1.5809                 1.9173                 2.2015
 Frc consts  --      1.8371                 2.2969                 2.7126
 IR Inten    --     85.9319                 8.1267                30.5054

                     52                     53                     54
                      A                      A                      A
 Frequencies --   1478.2191              1524.1713              1568.0939
 Red. masses --      8.7812                10.4500                 7.5511
 Frc consts  --     11.3053                14.3033                10.9396
 IR Inten    --     52.5363                36.4697               154.0688

                     55                     56                     57
                      A                      A                      A
 Frequencies --   1590.3914              1600.8070              1667.8419
 Red. masses --      7.3854                 5.4898                 6.6484
 Frc consts  --     11.0060                 8.2887                10.8963
 IR Inten    --     54.7478               154.0925               282.9007

                     58                     59                     60
                      A                      A                      A
 Frequencies --   1674.5795              3154.3636              3162.0501
 Red. masses --      6.0484                 1.0902                 1.0894
 Frc consts  --      9.9932                 6.3914                 6.4174
 IR Inten    --     59.2706                 8.6256                 5.2597

                     61                     62                     63
                      A                      A                      A
 Frequencies --   3164.7070              3168.4057              3182.0686
 Red. masses --      1.0841                 1.0909                 1.0884
 Frc consts  --      6.3971                 6.4525                 6.4930
 IR Inten    --      5.5187                10.2045                12.0348

                     64                     65                     66
                      A                      A                      A
 Frequencies --   3210.2262              3222.6179              3459.5096
 Red. masses --      1.0952                 1.0942                 1.0723
 Frc consts  --      6.6499                 6.6950                 7.5614
 IR Inten    --      9.5744                 0.3280                34.8422

 - Thermochemistry -
 -------------------
 Temperature   298.150 Kelvin.  Pressure   1.00000 Atm.
 Atom     1 has atomic number  7 and mass  14.00307

 Molecular mass:   228.04697 amu.
 Principal axes and moments of inertia in atomic units:
                           1         2         3
     Eigenvalues --  1535.287885823.534497175.87135
           X            0.99999  -0.00091   0.00327
           Y            0.00088   0.99997   0.00706
           Z           -0.00328  -0.00706   0.99997
 This molecule is an asymmetric top.
 Rotational symmetry number  1.
 Warning -- assumption of classical behavior for rotation
           may cause significant error
 Rotational temperatures (Kelvin)      0.05642     0.01487     0.01207
 Rotational constants (GHZ):           1.17551     0.30990     0.25150
 Zero-point vibrational energy     460597.2 (Joules/Mol)
                                  110.08538 (Kcal/Mol)
 Warning -- explicit consideration of  18 degrees of freedom as
           vibrations may cause significant error
 Vibrational temperatures:     69.47   101.23   159.31   219.97   254.97
          (Kelvin)            311.25   360.77   416.89   455.05   524.04
                              563.09   593.29   633.13   722.18   769.67
                              794.19   804.30   865.99   952.38   972.00
                              974.58  1038.12  1075.56  1109.72  1135.11
                             1179.63  1190.31  1216.79  1226.89  1262.27
                             1310.81  1343.65  1362.12  1379.11  1387.72
                             1432.17  1489.33  1558.15  1704.40  1724.35
                             1762.12  1780.71  1807.39  1887.52  1894.41
                             1916.92  1970.21  1990.72  2020.63  2051.61
                             2080.67  2126.83  2192.94  2256.14  2288.22
                             2303.20  2399.65  2409.35  4538.43  4549.48
                             4553.31  4558.63  4578.29  4618.80  4636.63
                             4977.46

 Zero-point correction=                           0.175432 (Hartree/Particle)
 Thermal correction to Energy=                    0.187459
 Thermal correction to Enthalpy=                  0.188403
 Thermal correction to Gibbs Free Energy=         0.136510
 Sum of electronic and zero-point Energies=          -1040.941570
 Sum of electronic and thermal Energies=             -1040.929543
 Sum of electronic and thermal Enthalpies=           -1040.928599
 Sum of electronic and thermal Free Energies=        -1040.980492

                     E (Thermal)             CV                S
                      KCal/Mol        Cal/Mol-Kelvin    Cal/Mol-Kelvin
 Total                  117.632             48.085            109.217
 Electronic               0.000              0.000              0.000
 Translational            0.889              2.981             42.175
 Rotational               0.889              2.981             32.528
 Vibrational            115.855             42.123             34.514
 Vibration     1          0.595              1.978              4.886
 Vibration     2          0.598              1.968              4.143
 Vibration     3          0.607              1.941              3.256
 Vibration     4          0.619              1.899              2.636
 Vibration     5          0.628              1.870              2.358
 Vibration     6          0.645              1.816              1.990
 Vibration     7          0.663              1.762              1.725
 Vibration     8          0.686              1.693              1.475
 Vibration     9          0.703              1.643              1.329
 Vibration    10          0.738              1.546              1.104
 Vibration    11          0.759              1.489              0.995
 Vibration    12          0.776              1.443              0.918
 Vibration    13          0.800              1.383              0.826
 Vibration    14          0.857              1.246              0.653
 Vibration    15          0.890              1.173              0.576
 Vibration    16          0.907              1.135              0.540
 Vibration    17          0.915              1.120              0.526
 Vibration    18          0.960              1.028              0.446

 Optimization completed.
    -- Stationary point found.
 Normal termination of Gaussian 16 at Fri May 19 20:14:01 2023.
