 Gaussian 16, Revision A.03,
 Gaussian 16:  ES64L-G16RevA.03 25-Dec-2016

 -----------------------------
 # opt freq b3lyp/6-31g(2df,p)
 -----------------------------

 -------------------
 Title Card Required
 -------------------
 Symbolic Z-matrix:
 Charge =  0 Multiplicity = 1

 SCF Done:  E(RB3LYP) =  -554.625501119     A.U. after   28 cycles
 SCF Done:  E(RB3LYP) =  -554.774929383     A.U. after   27 cycles
 SCF Done:  E(RB3LYP) =  -554.895246899     A.U. after   21 cycles
 SCF Done:  E(RB3LYP) =  -554.979897629     A.U. after   21 cycles
 SCF Done:  E(RB3LYP) =  -555.058241079     A.U. after   18 cycles
 SCF Done:  E(RB3LYP) =  -555.125500754     A.U. after   18 cycles
 SCF Done:  E(RB3LYP) =  -555.126886866     A.U. after   12 cycles
 SCF Done:  E(RB3LYP) =  -555.155055916     A.U. after   16 cycles
 SCF Done:  E(RB3LYP) =  -555.176342177     A.U. after   16 cycles
 SCF Done:  E(RB3LYP) =  -555.193849747     A.U. after   14 cycles
 SCF Done:  E(RB3LYP) =  -555.215499418     A.U. after   10 cycles
 SCF Done:  E(RB3LYP) =  -555.215541678     A.U. after   10 cycles
 SCF Done:  E(RB3LYP) =  -555.215558218     A.U. after   10 cycles
 SCF Done:  E(RB3LYP) =  -555.215563362     A.U. after    9 cycles
 SCF Done:  E(RB3LYP) =  -555.215565497     A.U. after    8 cycles
 SCF Done:  E(RB3LYP) =  -555.215565863     A.U. after    7 cycles
 SCF Done:  E(RB3LYP) =  -555.215566124     A.U. after    7 cycles
 SCF Done:  E(RB3LYP) =  -555.215566543     A.U. after    8 cycles
 SCF Done:  E(RB3LYP) =  -555.215566726     A.U. after    8 cycles
 Optimization completed.
    -- Stationary point found.
 Normal termination of Gaussian 16 at Wed May 17 17:27:59 2023.

 ----------------------------------------------------------------------
 #N Geom=AllCheck Guess=TCheck SCRF=Check GenChk RB3LYP/6-31G(2df,p) Fr
 eq
 ----------------------------------------------------------------------

 Structure from the checkpoint file:  "Ndc1ccccc2cqcc3cc1-3rdCCd2.chk"
 -------------------
 Title Card Required
 -------------------
 Charge =  0 Multiplicity = 1

                         Standard orientation:
 ---------------------------------------------------------------------
 Center     Atomic      Atomic             Coordinates (Angstroms)
 Number     Number       Type             X           Y           Z
 ---------------------------------------------------------------------
      1          7           0        4.911247    0.688071    0.488172
      2          6           0        5.017300    0.713099   -0.788640
      3          6           0        3.905722   -0.192819   -0.027623
      4          6           0        2.505002    0.214203   -0.006611
      5          6           0        1.463942   -0.640819    0.014925
      6          6           0        0.084930   -0.220622    0.001981
      7          6           0       -0.962903   -1.061632    0.006300
      8          6           0       -2.458215   -0.924394   -0.002510
      9          6           0       -3.366184    0.071325   -0.008690
     10          6           0       -3.004497    1.450381   -0.003545
     11          6           0       -3.346956    2.742095   -0.008214
     12          6           0       -1.972804    2.450818    0.015886
     13          6           0       -2.543028   -2.397389   -0.000080
     14          6           0       -1.187024   -2.525376    0.010385
     15          1           0        5.270103    1.101975    1.340791
     16          1           0        4.117657   -1.256772    0.049913
     17          1           0        2.312270    1.285382   -0.035576
     18          1           0        1.666166   -1.711166    0.041376
     19          1           0       -0.123085    0.847852   -0.009100
     20          1           0       -4.422859   -0.185524   -0.016819
     21          1           0       -4.117864    3.498039   -0.021111
     22          1           0       -3.371755   -3.090768   -0.004968
     23          1           0       -0.521069   -3.378745    0.016908
 ---------------------------------------------------------------------

 SCF Done:  E(RB3LYP) =  -555.215566726     A.U. after    1 cycles

 The electronic state is 1-A.
 Alpha  occ. eigenvalues --  -14.39728 -10.23420 -10.22727 -10.22551 -10.22186
 Alpha  occ. eigenvalues --  -10.22124 -10.21186 -10.21167 -10.20232 -10.20080
 Alpha  occ. eigenvalues --  -10.18980 -10.18632 -10.18294 -10.17447  -1.01871
 Alpha  occ. eigenvalues --   -0.90207  -0.89239  -0.80457  -0.76727  -0.73967
 Alpha  occ. eigenvalues --   -0.68712  -0.64049  -0.62973  -0.59298  -0.56787
 Alpha  occ. eigenvalues --   -0.56201  -0.54586  -0.50639  -0.49437  -0.47967
 Alpha  occ. eigenvalues --   -0.44967  -0.43361  -0.42872  -0.39986  -0.39667
 Alpha  occ. eigenvalues --   -0.37802  -0.36640  -0.36474  -0.35054  -0.34293
 Alpha  occ. eigenvalues --   -0.32354  -0.30840  -0.29967  -0.25863  -0.24716
 Alpha  occ. eigenvalues --   -0.20984  -0.19736
 Alpha virt. eigenvalues --   -0.06834  -0.04908  -0.01374   0.01267   0.03384
 Alpha virt. eigenvalues --    0.06846   0.08504   0.10271   0.11065   0.12233
 Alpha virt. eigenvalues --    0.12754   0.13468   0.13687   0.15112   0.16297

 Mulliken charges:
               1
     1  N   -0.119175
     2  C   -0.187733
     3  C   -0.101875
     4  C   -0.060683
     5  C   -0.077243
     6  C   -0.254969
     7  C    0.207201
     8  C    0.354702
     9  C   -0.468333
    10  C    0.368495
    11  C   -0.189335
    12  C   -0.298472
    13  C   -0.214042
    14  C   -0.179641
    15  H    0.292159
    16  H    0.096723
    17  H    0.105233
    18  H    0.075280
    19  H    0.144899
    20  H    0.101003
    21  H    0.147846
    22  H    0.127937
    23  H    0.130022
 Sum of Mulliken charges =  -0.00000

 Dipole moment (field-independent basis, Debye):
    X=             -1.7416    Y=             -3.0239    Z=              2.8323  Tot=              4.4943
 Quadrupole moment (field-independent basis, Debye-Ang):
   XX=            -65.1547   YY=            -74.9739   ZZ=            -83.0394
   XY=             -0.9675   XZ=             16.0790   YZ=              3.0180

  Exact polarizability: 277.708  19.711 178.861  -1.730  -0.539  68.241
 Approx polarizability: 416.333  58.561 317.804  -4.814  -2.313 119.627

                      1                      2                      3
                      A                      A                      A
 Frequencies --     49.5105                50.6131                72.7599
 Red. masses --      6.3741                 5.0665                 3.3327
 Frc consts  --      0.0092                 0.0076                 0.0104
 IR Inten    --      1.1609                 6.2082                14.6169

                      4                      5                      6
                      A                      A                      A
 Frequencies --    109.2381               114.1671               130.8762
 Red. masses --      3.8175                 5.1131                 6.0594
 Frc consts  --      0.0268                 0.0393                 0.0612
 IR Inten    --      9.1059                 9.1362                 5.4397

                      7                      8                      9
                      A                      A                      A
 Frequencies --    173.4528               204.1883               228.8382
 Red. masses --      3.7579                 5.1720                 6.4128
 Frc consts  --      0.0666                 0.1270                 0.1979
 IR Inten    --      6.2423                 2.2358                 3.2823

                     10                     11                     12
                      A                      A                      A
 Frequencies --    249.6468               257.1233               365.2450
 Red. masses --      3.2217                 2.9532                 4.0683
 Frc consts  --      0.1183                 0.1150                 0.3198
 IR Inten    --      0.6657                 0.3262                 3.6093

                     13                     14                     15
                      A                      A                      A
 Frequencies --    375.9284               426.4261               456.2251
 Red. masses --      4.5894                 2.4879                 4.5483
 Frc consts  --      0.3821                 0.2665                 0.5578
 IR Inten    --      2.8559                18.3144                 6.8014

                     16                     17                     18
                      A                      A                      A
 Frequencies --    482.2887               529.9249               537.6575
 Red. masses --      3.6618                 1.7210                 3.5209
 Frc consts  --      0.5018                 0.2848                 0.5997
 IR Inten    --      8.6193                50.7498                 0.6078

                     19                     20                     21
                      A                      A                      A
 Frequencies --    557.5015               670.6308               766.7242
 Red. masses --      3.1652                 5.0232                 4.4815
 Frc consts  --      0.5796                 1.3311                 1.5522
 IR Inten    --     34.9942                73.1443                 0.3053

                     22                     23                     24
                      A                      A                      A
 Frequencies --    786.5791               789.5568               803.0293
 Red. masses --      1.2999                 5.6712                 4.2129
 Frc consts  --      0.4739                 2.0830                 1.6006
 IR Inten    --     20.2144                20.9946                 4.3223

                     25                     26                     27
                      A                      A                      A
 Frequencies --    871.1137               872.9445               885.7834
 Red. masses --      2.6825                 1.3499                 1.8437
 Frc consts  --      1.1993                 0.6061                 0.8523
 IR Inten    --     13.6051                13.4842                 5.2578

                     28                     29                     30
                      A                      A                      A
 Frequencies --    911.4508               921.1155               958.9152
 Red. masses --      1.5684                 1.4883                 1.4018
 Frc consts  --      0.7677                 0.7440                 0.7594
 IR Inten    --     25.4861                 0.4648                 1.7065

                     31                     32                     33
                      A                      A                      A
 Frequencies --    966.1321               981.0311              1001.5100
 Red. masses --      1.3460                 1.6368                 3.3781
 Frc consts  --      0.7402                 0.9281                 1.9963
 IR Inten    --      1.5559                 2.9320                 2.0282

                     34                     35                     36
                      A                      A                      A
 Frequencies --   1009.0851              1039.3373              1042.8259
 Red. masses --      1.3332                 1.8519                 1.2117
 Frc consts  --      0.7998                 1.1786                 0.7764
 IR Inten    --     13.0604                14.7186                40.8371

                     37                     38                     39
                      A                      A                      A
 Frequencies --   1093.8636              1134.0662              1178.8537
 Red. masses --      1.6825                 2.8578                 2.7118
 Frc consts  --      1.1861                 2.1655                 2.2204
 IR Inten    --     16.7305                 7.9582                22.5364

                     40                     41                     42
                      A                      A                      A
 Frequencies --   1209.2536              1232.3039              1262.3321
 Red. masses --      6.5144                 2.3934                 1.3213
 Frc consts  --      5.6125                 2.1414                 1.2405
 IR Inten    --     93.7173                18.0755                11.6092

                     43                     44                     45
                      A                      A                      A
 Frequencies --   1288.1090              1305.3428              1327.1901
 Red. masses --      1.5905                 3.7220                 1.4504
 Frc consts  --      1.5549                 3.7366                 1.5053
 IR Inten    --      1.0138                32.0053                 0.1399

                     46                     47                     48
                      A                      A                      A
 Frequencies --   1356.6871              1363.3844              1418.8870
 Red. masses --      1.7424                 1.3008                 1.6373
 Frc consts  --      1.8896                 1.4246                 1.9422
 IR Inten    --      9.6498                 1.5922                 7.0327

                     49                     50                     51
                      A                      A                      A
 Frequencies --   1526.7241              1598.2270              1670.8108
 Red. masses --      5.1248                 7.4991                 7.5593
 Frc consts  --      7.0379                11.2859                12.4333
 IR Inten    --     23.7279               109.0306                88.2694

                     52                     53                     54
                      A                      A                      A
 Frequencies --   1686.0377              1734.4493              1759.2691
 Red. masses --      5.7435                 8.9467                 8.5405
 Frc consts  --      9.6196                15.8576                15.5739
 IR Inten    --     24.2844                40.3853               205.5821

                     55                     56                     57
                      A                      A                      A
 Frequencies --   3126.2945              3132.1393              3144.0443
 Red. masses --      1.0884                 1.0871                 1.0907
 Frc consts  --      6.2678                 6.2835                 6.3522
 IR Inten    --     11.3571                28.7082                12.5257

                     58                     59                     60
                      A                      A                      A
 Frequencies --   3147.5362              3150.1623              3213.8863
 Red. masses --      1.0877                 1.0871                 1.0889
 Frc consts  --      6.3489                 6.3562                 6.6265
 IR Inten    --     14.8015                 7.2868                 2.9709

                     61                     62                     63
                      A                      A                      A
 Frequencies --   3242.1451              3247.8571              3514.3060
 Red. masses --      1.1121                 1.1107                 1.0837
 Frc consts  --      6.8876                 6.9033                 7.8853
 IR Inten    --      0.6981                 4.1456                19.0636

 - Thermochemistry -
 -------------------
 Temperature   298.150 Kelvin.  Pressure   1.00000 Atm.
 Atom     1 has atomic number  7 and mass  14.00307

 Molecular mass:   179.07350 amu.
 Principal axes and moments of inertia in atomic units:
                           1         2         3
     Eigenvalues --  1536.751925863.747217310.57166
           X            0.99999  -0.00065   0.00456
           Y            0.00064   1.00000   0.00282
           Z           -0.00456  -0.00282   0.99999
 This molecule is an asymmetric top.
 Rotational symmetry number  1.
 Warning -- assumption of classical behavior for rotation
           may cause significant error
 Rotational temperatures (Kelvin)      0.05636     0.01477     0.01185
 Rotational constants (GHZ):           1.17439     0.30778     0.24687
 Zero-point vibrational energy     446886.2 (Joules/Mol)
                                  106.80837 (Kcal/Mol)
 Warning -- explicit consideration of  19 degrees of freedom as
           vibrations may cause significant error
 Vibrational temperatures:     71.23    72.82   104.69   157.17   164.26
          (Kelvin)            188.30   249.56   293.78   329.25   359.19
                              369.94   525.51   540.88   613.53   656.41
                              693.91   762.44   773.57   802.12   964.89
                             1103.15  1131.71  1136.00  1155.38  1253.34
                             1255.97  1274.44  1311.37  1325.28  1379.67
                             1390.05  1411.49  1440.95  1451.85  1495.37
                             1500.39  1573.83  1631.67  1696.11  1739.85
                             1773.01  1816.21  1853.30  1878.10  1909.53
                             1951.97  1961.61  2041.46  2196.62  2299.49
                             2403.92  2425.83  2495.49  2531.20  4498.04
                             4506.45  4523.58  4528.60  4532.38  4624.07
                             4664.72  4672.94  5056.30

 Zero-point correction=                           0.170210 (Hartree/Particle)
 Thermal correction to Energy=                    0.183460
 Thermal correction to Enthalpy=                  0.184405
 Thermal correction to Gibbs Free Energy=         0.129211
 Sum of electronic and zero-point Energies=           -555.045357
 Sum of electronic and thermal Energies=              -555.032106
 Sum of electronic and thermal Enthalpies=            -555.031162
 Sum of electronic and thermal Free Energies=         -555.086356

                     E (Thermal)             CV                S
                      KCal/Mol        Cal/Mol-Kelvin    Cal/Mol-Kelvin
 Total                  115.123             48.427            116.165
 Electronic               0.000              0.000              0.000
 Translational            0.889              2.981             41.455
 Rotational               0.889              2.981             32.555
 Vibrational            113.346             42.465             42.156
 Vibration     1          0.595              1.978              4.837
 Vibration     2          0.595              1.977              4.793
 Vibration     3          0.599              1.967              4.077
 Vibration     4          0.606              1.942              3.282
 Vibration     5          0.607              1.938              3.197
 Vibration     6          0.612              1.922              2.933
 Vibration     7          0.627              1.875              2.398
 Vibration     8          0.640              1.834              2.095
 Vibration     9          0.652              1.797              1.888
 Vibration    10          0.662              1.763              1.733
 Vibration    11          0.667              1.751              1.681
 Vibration    12          0.738              1.544              1.100
 Vibration    13          0.747              1.521              1.056
 Vibration    14          0.788              1.413              0.870
 Vibration    15          0.814              1.347              0.777
 Vibration    16          0.839              1.289              0.704
 Vibration    17          0.885              1.184              0.587
 Vibration    18          0.893              1.167              0.570
 Vibration    19          0.913              1.123              0.529

 Optimization completed.
    -- Stationary point found.
 Normal termination of Gaussian 16 at Wed May 17 18:25:21 2023.
