 Gaussian 16, Revision A.03,
 Gaussian 16:  ES64L-G16RevA.03 25-Dec-2016

 -----------------------------
 # opt freq b3lyp/6-31g(2df,p)
 -----------------------------

 -------------------
 Title Card Required
 -------------------
 Symbolic Z-matrix:
 Charge =  0 Multiplicity = 1

 SCF Done:  E(RB3LYP) =  -1361.87560481     A.U. after   17 cycles
 SCF Done:  E(RB3LYP) =  -1361.89740817     A.U. after   14 cycles
 SCF Done:  E(RB3LYP) =  -1361.90323016     A.U. after   14 cycles
 SCF Done:  E(RB3LYP) =  -1361.90402358     A.U. after   13 cycles
 SCF Done:  E(RB3LYP) =  -1361.90427819     A.U. after   13 cycles
 SCF Done:  E(RB3LYP) =  -1361.90436047     A.U. after   12 cycles
 SCF Done:  E(RB3LYP) =  -1361.90439187     A.U. after   11 cycles
 SCF Done:  E(RB3LYP) =  -1361.90440159     A.U. after   10 cycles
 SCF Done:  E(RB3LYP) =  -1361.90440330     A.U. after    8 cycles
 SCF Done:  E(RB3LYP) =  -1361.90440455     A.U. after    8 cycles
 SCF Done:  E(RB3LYP) =  -1361.90440486     A.U. after    8 cycles
 SCF Done:  E(RB3LYP) =  -1361.90440493     A.U. after    7 cycles
 Optimization completed.
    -- Stationary point found.
 Normal termination of Gaussian 16 at Thu May 18 17:20:06 2023.

 ----------------------------------------------------------------------
 #N Geom=AllCheck Guess=TCheck SCRF=Check GenChk RB3LYP/6-31G(2df,p) Fr
 eq
 ----------------------------------------------------------------------

 Structure from the checkpoint file:  "Ndc1ssc2c1dNNc1ccccc1Nd2.chk"
 -------------------
 Title Card Required
 -------------------
 Charge =  0 Multiplicity = 1

                         Standard orientation:
 ---------------------------------------------------------------------
 Center     Atomic      Atomic             Coordinates (Angstroms)
 Number     Number       Type             X           Y           Z
 ---------------------------------------------------------------------
      1          7           0       -2.395529    2.158717   -1.184069
      2          6           0       -2.195028    1.094390   -0.536549
      3         16           0       -3.458302   -0.135141   -0.144732
      4         16           0       -2.139552   -1.713686    0.363992
      5          6           0       -0.660382   -0.720114    0.271292
      6          6           0       -0.898710    0.731385    0.109150
      7          7           0       -0.076922    1.659583    0.446745
      8          7           0        0.981032    1.226852    1.332432
      9          6           0        1.977729    0.562360    0.537813
     10          6           0        3.232259    1.130171    0.353325
     11          6           0        4.207091    0.442163   -0.361381
     12          6           0        3.935017   -0.830879   -0.870544
     13          6           0        2.692901   -1.413850   -0.673774
     14          6           0        1.681875   -0.714707    0.006248
     15          7           0        0.452731   -1.346234    0.152298
     16          1           0       -3.352623    2.250199   -1.527350
     17          1           0        0.579227    0.532376    1.968073
     18          1           0        3.424085    2.105275    0.785242
     19          1           0        5.185855    0.886545   -0.504755
     20          1           0        4.701123   -1.370491   -1.416655
     21          1           0        2.462291   -2.400607   -1.058026
 ---------------------------------------------------------------------

 SCF Done:  E(RB3LYP) =  -1361.90440493     A.U. after    1 cycles

 The electronic state is 1-A.
 Alpha  occ. eigenvalues --  -88.92619 -88.92361 -14.38512 -14.37017 -14.36128
 Alpha  occ. eigenvalues --  -14.34293 -10.29182 -10.28966 -10.26640 -10.24011
 Alpha  occ. eigenvalues --  -10.23697 -10.20460 -10.20353 -10.20278 -10.20100
 Alpha  occ. eigenvalues --   -7.98911  -7.98737  -5.95435  -5.95254  -5.95025
 Alpha  occ. eigenvalues --   -5.94834  -5.94393  -5.94228  -1.02315  -0.95863
 Alpha  occ. eigenvalues --   -0.94293  -0.88509  -0.84059  -0.82950  -0.76758
 Alpha  occ. eigenvalues --   -0.74687  -0.70817  -0.69723  -0.62864  -0.61699
 Alpha  occ. eigenvalues --   -0.60163  -0.56336  -0.55008  -0.51288  -0.50545
 Alpha  occ. eigenvalues --   -0.48732  -0.47283  -0.45525  -0.44299  -0.43359
 Alpha  occ. eigenvalues --   -0.41441  -0.39977  -0.38242  -0.37560  -0.36845
 Alpha  occ. eigenvalues --   -0.36662  -0.34598  -0.33105  -0.31460  -0.29948
 Alpha  occ. eigenvalues --   -0.28038  -0.26435  -0.25547  -0.24859  -0.22689
 Alpha virt. eigenvalues --   -0.10259  -0.07165  -0.03751  -0.01780  -0.01119
 Alpha virt. eigenvalues --    0.00991   0.03984   0.06906   0.08411   0.10014
 Alpha virt. eigenvalues --    0.11403   0.13054   0.13997   0.16103   0.16765

 Mulliken charges:
               1
     1  N   -0.438167
     2  C    0.201016
     3  S   -0.075253
     4  S   -0.029750
     5  C    0.147449
     6  C    0.241037
     7  N   -0.236739
     8  N   -0.373755
     9  C    0.223168
    10  C   -0.164149
    11  C   -0.115259
    12  C   -0.101729
    13  C   -0.169582
    14  C    0.299346
    15  N   -0.353789
    16  H    0.250623
    17  H    0.236647
    18  H    0.123407
    19  H    0.110955
    20  H    0.108668
    21  H    0.115856
 Sum of Mulliken charges =  -0.00000

 Dipole moment (field-independent basis, Debye):
    X=              0.8476    Y=             -1.5197    Z=             -0.1939  Tot=              1.7509
 Quadrupole moment (field-independent basis, Debye-Ang):
   XX=            -81.4795   YY=           -105.6627   ZZ=            -97.9820
   XY=             -1.8607   XZ=             -0.8444   YZ=              0.4290

  Exact polarizability: 260.317   3.239 151.966  -5.710   1.227  93.044
 Approx polarizability: 407.677  13.540 309.211 -14.220   0.451 171.615

                      1                      2                      3
                      A                      A                      A
 Frequencies --     50.9078                65.3402                83.8093
 Red. masses --     15.5872                 6.7293                 6.2623
 Frc consts  --      0.0238                 0.0169                 0.0259
 IR Inten    --      0.5380                 1.9293                 0.7920

                      4                      5                      6
                      A                      A                      A
 Frequencies --    162.9256               182.6588               239.1102
 Red. masses --      5.4831                 6.8006                 9.2117
 Frc consts  --      0.0858                 0.1337                 0.3103
 IR Inten    --      0.4769                 0.9435                 2.9347

                      7                      8                      9
                      A                      A                      A
 Frequencies --    284.9988               314.3399               338.9468
 Red. masses --      8.6160                 7.7331                 5.6137
 Frc consts  --      0.4123                 0.4502                 0.3800
 IR Inten    --      1.2575                14.4943                 3.0500

                     10                     11                     12
                      A                      A                      A
 Frequencies --    359.4567               379.6778               422.2466
 Red. masses --      8.3581                 5.1895                 6.9808
 Frc consts  --      0.6363                 0.4408                 0.7333
 IR Inten    --     14.2910                 4.0663                 5.1210

                     13                     14                     15
                      A                      A                      A
 Frequencies --    460.7053               486.1901               511.0264
 Red. masses --      5.1482                10.6056                 8.0071
 Frc consts  --      0.6438                 1.4771                 1.2320
 IR Inten    --      6.4529                 2.2871                 2.1598

                     16                     17                     18
                      A                      A                      A
 Frequencies --    530.7426               557.0812               576.5908
 Red. masses --      5.7156                 8.7574                 5.0951
 Frc consts  --      0.9486                 1.6013                 0.9980
 IR Inten    --      1.4590                16.1232                 4.4872

                     19                     20                     21
                      A                      A                      A
 Frequencies --    603.4435               609.3349               656.9468
 Red. masses --      6.8456                 7.8348                 6.5703
 Frc consts  --      1.4687                 1.7139                 1.6707
 IR Inten    --      1.7849                12.5760                 7.2129

                     22                     23                     24
                      A                      A                      A
 Frequencies --    737.4443               761.7707               788.3648
 Red. masses --      6.7386                 3.0659                 4.0120
 Frc consts  --      2.1591                 1.0482                 1.4691
 IR Inten    --      4.0549                 6.9337                 5.7849

                     25                     26                     27
                      A                      A                      A
 Frequencies --    792.5204               811.3880               860.8194
 Red. masses --      1.8395                 3.4537                 1.2671
 Frc consts  --      0.6807                 1.3396                 0.5532
 IR Inten    --     27.7468                32.3325                53.6267

                     28                     29                     30
                      A                      A                      A
 Frequencies --    873.2289               908.6656               945.6250
 Red. masses --      4.7734                 1.6455                 3.4604
 Frc consts  --      2.1446                 0.8005                 1.8231
 IR Inten    --      9.1201                 2.7715                82.2748

                     31                     32                     33
                      A                      A                      A
 Frequencies --    961.2759               988.7929              1039.9833
 Red. masses --      1.3540                 1.2800                 2.2959
 Frc consts  --      0.7372                 0.7373                 1.4631
 IR Inten    --      4.7381                 0.7688                42.1807

                     34                     35                     36
                      A                      A                      A
 Frequencies --   1043.0709              1058.0532              1119.4352
 Red. masses --      3.8762                 1.9117                 2.0474
 Frc consts  --      2.4848                 1.2609                 1.5116
 IR Inten    --     71.6341                23.5035                 6.0456

                     37                     38                     39
                      A                      A                      A
 Frequencies --   1157.4467              1178.8351              1211.2828
 Red. masses --      2.7245                 1.1490                 2.4296
 Frc consts  --      2.1505                 0.9408                 2.1003
 IR Inten    --     74.8909                12.3486                 2.9860

                     40                     41                     42
                      A                      A                      A
 Frequencies --   1222.9945              1275.2593              1289.8417
 Red. masses --      2.3207                 4.3061                 1.7414
 Frc consts  --      2.0451                 4.1261                 1.7070
 IR Inten    --    209.7729                18.0953                 3.8287

                     43                     44                     45
                      A                      A                      A
 Frequencies --   1329.8007              1441.6379              1486.6032
 Red. masses --      5.8025                 1.2898                 2.3061
 Frc consts  --      6.0456                 1.5794                 3.0028
 IR Inten    --      6.1781                 9.1469                 9.1033

                     46                     47                     48
                      A                      A                      A
 Frequencies --   1491.3637              1566.5223              1596.7651
 Red. masses --      2.4773                 8.9479                 5.7494
 Frc consts  --      3.2463                12.9373                 8.6369
 IR Inten    --      8.3483                 2.0565                12.3878

                     49                     50                     51
                      A                      A                      A
 Frequencies --   1623.4336              1644.0138              1705.2490
 Red. masses --     11.6375                 6.6403                 8.6393
 Frc consts  --     18.0709                10.5743                14.8015
 IR Inten    --     74.4964                39.3628                97.4708

                     52                     53                     54
                      A                      A                      A
 Frequencies --   3180.9068              3194.2553              3206.2679
 Red. masses --      1.0852                 1.0898                 1.0935
 Frc consts  --      6.4692                 6.5512                 6.6234
 IR Inten    --      2.1995                 8.2172                 7.1294

                     55                     56                     57
                      A                      A                      A
 Frequencies --   3211.4116              3387.6667              3475.2928
 Red. masses --      1.0963                 1.0728                 1.0763
 Frc consts  --      6.6616                 7.2541                 7.6589
 IR Inten    --      9.7049                 0.8369                12.8948

 - Thermochemistry -
 -------------------
 Temperature   298.150 Kelvin.  Pressure   1.00000 Atm.
 Atom     1 has atomic number  7 and mass  14.00307

 Molecular mass:   234.00339 amu.
 Principal axes and moments of inertia in atomic units:
                           1         2         3
     Eigenvalues --  1565.068715557.944356492.35358
           X            0.99998  -0.00666  -0.00226
           Y            0.00669   0.99990   0.01245
           Z            0.00218  -0.01247   0.99992
 This molecule is an asymmetric top.
 Rotational symmetry number  1.
 Warning -- assumption of classical behavior for rotation
           may cause significant error
 Rotational temperatures (Kelvin)      0.05534     0.01558     0.01334
 Rotational constants (GHZ):           1.15314     0.32471     0.27798
 Zero-point vibrational energy     373496.7 (Joules/Mol)
                                   89.26785 (Kcal/Mol)
 Warning -- explicit consideration of  20 degrees of freedom as
           vibrations may cause significant error
 Vibrational temperatures:     73.25    94.01   120.58   234.41   262.81
          (Kelvin)            344.03   410.05   452.26   487.67   517.18
                              546.27   607.52   662.85   699.52   735.25
                              763.62   801.52   829.59   868.22   876.70
                              945.20  1061.02  1096.02  1134.28  1140.26
                             1167.41  1238.53  1256.38  1307.37  1360.54
                             1383.06  1422.65  1496.30  1500.75  1522.30
                             1610.62  1665.31  1696.08  1742.77  1759.62
                             1834.81  1855.79  1913.29  2074.20  2138.89
                             2145.74  2253.88  2297.39  2335.76  2365.37
                             2453.47  4576.62  4595.82  4613.10  4620.50
                             4874.10  5000.17

 Zero-point correction=                           0.142257 (Hartree/Particle)
 Thermal correction to Energy=                    0.154076
 Thermal correction to Enthalpy=                  0.155020
 Thermal correction to Gibbs Free Energy=         0.103362
 Sum of electronic and zero-point Energies=          -1361.762148
 Sum of electronic and thermal Energies=             -1361.750329
 Sum of electronic and thermal Enthalpies=           -1361.749385
 Sum of electronic and thermal Free Energies=        -1361.801043

                     E (Thermal)             CV                S
                      KCal/Mol        Cal/Mol-Kelvin    Cal/Mol-Kelvin
 Total                   96.684             46.323            108.724
 Electronic               0.000              0.000              0.000
 Translational            0.889              2.981             42.252
 Rotational               0.889              2.981             32.402
 Vibrational             94.907             40.361             34.070
 Vibration     1          0.595              1.977              4.782
 Vibration     2          0.597              1.971              4.289
 Vibration     3          0.601              1.960              3.800
 Vibration     4          0.623              1.888              2.516
 Vibration     5          0.630              1.863              2.301
 Vibration     6          0.657              1.781              1.809
 Vibration     7          0.683              1.702              1.503
 Vibration     8          0.702              1.646              1.339
 Vibration     9          0.719              1.598              1.217
 Vibration    10          0.734              1.556              1.124
 Vibration    11          0.750              1.513              1.040
 Vibration    12          0.785              1.422              0.884
 Vibration    13          0.819              1.337              0.764
 Vibration    14          0.842              1.281              0.694
 Vibration    15          0.866              1.226              0.631
 Vibration    16          0.886              1.182              0.586
 Vibration    17          0.913              1.124              0.530
 Vibration    18          0.933              1.082              0.492
 Vibration    19          0.962              1.024              0.444
 Vibration    20          0.968              1.012              0.434

 Optimization completed.
    -- Stationary point found.
 Normal termination of Gaussian 16 at Thu May 18 18:46:49 2023.
