 Gaussian 16, Revision A.03,
 Gaussian 16:  ES64L-G16RevA.03 25-Dec-2016

 -----------------------------
 # opt freq b3lyp/6-31g(2df,p)
 -----------------------------

 -------------------
 Title Card Required
 -------------------
 Symbolic Z-matrix:
 Charge =  0 Multiplicity = 1

 SCF Done:  E(RB3LYP) =  -1252.05002055     A.U. after   27 cycles
 SCF Done:  E(RB3LYP) =  -1252.11677111     A.U. after   23 cycles
 SCF Done:  E(RB3LYP) =  -1252.16991417     A.U. after   23 cycles
 SCF Done:  E(RB3LYP) =  -1252.18207602     A.U. after   19 cycles
 SCF Done:  E(RB3LYP) =  -1252.19102222     A.U. after   18 cycles
 SCF Done:  E(RB3LYP) =  -1252.19139011     A.U. after   13 cycles
 SCF Done:  E(RB3LYP) =  -1252.19806334     A.U. after   17 cycles
 SCF Done:  E(RB3LYP) =  -1252.21054279     A.U. after   16 cycles
 SCF Done:  E(RB3LYP) =  -1252.20906753     A.U. after   16 cycles
 SCF Done:  E(RB3LYP) =  -1252.23446621     A.U. after   15 cycles
 SCF Done:  E(RB3LYP) =  -1252.27941658     A.U. after   14 cycles
 SCF Done:  E(RB3LYP) =  -1252.27946621     A.U. after   13 cycles
 SCF Done:  E(RB3LYP) =  -1252.27953787     A.U. after   13 cycles
 SCF Done:  E(RB3LYP) =  -1252.27956158     A.U. after   13 cycles
 SCF Done:  E(RB3LYP) =  -1252.27957485     A.U. after   13 cycles
 SCF Done:  E(RB3LYP) =  -1252.27958084     A.U. after   11 cycles
 SCF Done:  E(RB3LYP) =  -1252.27958351     A.U. after    9 cycles
 SCF Done:  E(RB3LYP) =  -1252.27958472     A.U. after    9 cycles
 SCF Done:  E(RB3LYP) =  -1252.27958530     A.U. after    9 cycles
 Optimization completed.
    -- Stationary point found.
 Normal termination of Gaussian 16 at Tue May 16 22:16:26 2023.

 ----------------------------------------------------------------------
 #N Geom=AllCheck Guess=TCheck SCRF=Check GenChk RB3LYP/6-31G(2df,p) Fr
 eq
 ----------------------------------------------------------------------

 Structure from the checkpoint file:  "NdC1CqdSrCqNrdC[C]SC2dCCdC12.chk"
 -------------------
 Title Card Required
 -------------------
 Charge =  0 Multiplicity = 1

                         Standard orientation:
 ---------------------------------------------------------------------
 Center     Atomic      Atomic             Coordinates (Angstroms)
 Number     Number       Type             X           Y           Z
 ---------------------------------------------------------------------
      1          7           0        0.774380   -1.504123    2.067950
      2          6           0        0.567031   -0.983908    0.931772
      3          6           0        1.417073   -0.001449    0.172811
      4         16           0        2.973570   -0.477268   -0.268329
      5          6           0        0.930757    1.333791   -0.121824
      6          7           0        1.866541    2.233343   -0.476281
      7          6           0       -0.406004    1.815313    0.094510
      8          6           0       -1.479999    1.006917   -0.052857
      9         16           0       -3.004621    0.520972    0.597737
     10          6           0       -1.643956   -0.372118   -0.356506
     11          6           0       -1.721021   -1.106381   -1.659662
     12          6           0       -0.650017   -1.883382   -1.289275
     13          6           0       -0.542709   -1.308034    0.032995
     14          1           0        1.637641   -1.121393    2.466823
     15          1           0        2.807829    1.878660   -0.618601
     16          1           0        1.607741    3.145389   -0.809983
     17          1           0       -0.527073    2.851433    0.399442
     18          1           0       -2.315098   -0.965767   -2.549220
     19          1           0       -0.027610   -2.596611   -1.812470
 ---------------------------------------------------------------------

 SCF Done:  E(RB3LYP) =  -1252.27958530     A.U. after    1 cycles

 The electronic state is 1-A.
 Alpha  occ. eigenvalues --  -88.91500 -88.83212 -14.37626 -14.31967 -10.27651
 Alpha  occ. eigenvalues --  -10.26798 -10.25724 -10.25132 -10.24460 -10.23227
 Alpha  occ. eigenvalues --  -10.23028 -10.22704 -10.22518  -7.97662  -7.89687
 Alpha  occ. eigenvalues --   -5.94041  -5.93845  -5.93268  -5.86088  -5.85780
 Alpha  occ. eigenvalues --   -5.85309  -0.96566  -0.94146  -0.91007  -0.86384
 Alpha  occ. eigenvalues --   -0.80421  -0.76802  -0.70824  -0.66335  -0.64773
 Alpha  occ. eigenvalues --   -0.61316  -0.59750  -0.56278  -0.55924  -0.50538
 Alpha  occ. eigenvalues --   -0.49506  -0.48878  -0.46343  -0.45888  -0.43376
 Alpha  occ. eigenvalues --   -0.41791  -0.39770  -0.39093  -0.37001  -0.34478
 Alpha  occ. eigenvalues --   -0.33769  -0.30865  -0.28648  -0.27918  -0.26530
 Alpha  occ. eigenvalues --   -0.25291  -0.21504  -0.18213
 Alpha virt. eigenvalues --   -0.11194  -0.06621  -0.04593  -0.00923   0.01875
 Alpha virt. eigenvalues --    0.04647   0.06098   0.07417   0.10277   0.11756
 Alpha virt. eigenvalues --    0.12447   0.13225   0.14236   0.14827   0.15908

 Mulliken charges:
               1
     1  N   -0.466683
     2  C    0.176772
     3  C    0.086239
     4  S   -0.455912
     5  C    0.309762
     6  N   -0.512113
     7  C   -0.298804
     8  C    0.172109
     9  S   -0.147573
    10  C    0.178539
    11  C   -0.191785
    12  C   -0.127167
    13  C    0.070688
    14  H    0.236191
    15  H    0.288862
    16  H    0.269017
    17  H    0.120288
    18  H    0.142504
    19  H    0.149067
 Sum of Mulliken charges =  -0.00000

 Dipole moment (field-independent basis, Debye):
    X=             -1.7678    Y=              4.1121    Z=             -2.7179  Tot=              5.2365
 Quadrupole moment (field-independent basis, Debye-Ang):
   XX=            -94.6986   YY=            -78.6248   ZZ=            -87.8958
   XY=              7.3886   XZ=              3.1781   YZ=              4.1199

  Exact polarizability: 246.857   8.775 155.623   0.538   8.602 112.494
 Approx polarizability: 643.117 115.851 392.179  14.992  38.741 214.451

                      1                      2                      3
                      A                      A                      A
 Frequencies --     45.2151                65.8584               116.1092
 Red. masses --      6.5873                 8.5855                 6.0285
 Frc consts  --      0.0079                 0.0219                 0.0479
 IR Inten    --      1.3226                 1.7275                 1.3531

                      4                      5                      6
                      A                      A                      A
 Frequencies --    175.4191               190.4978               246.1359
 Red. masses --      5.9264                 6.2826                 6.2460
 Frc consts  --      0.1074                 0.1343                 0.2229
 IR Inten    --      3.2999                 0.2595                 3.4408

                      7                      8                      9
                      A                      A                      A
 Frequencies --    265.0873               292.3632               310.7429
 Red. masses --      4.9835                 6.0003                 4.6832
 Frc consts  --      0.2063                 0.3022                 0.2664
 IR Inten    --      3.9934                20.3019                 8.0875

                     10                     11                     12
                      A                      A                      A
 Frequencies --    337.7462               348.0608               362.5570
 Red. masses --      1.9090                 1.9812                 5.4734
 Frc consts  --      0.1283                 0.1414                 0.4239
 IR Inten    --     89.6949               108.4451                13.7204

                     13                     14                     15
                      A                      A                      A
 Frequencies --    408.2510               469.2161               536.4863
 Red. masses --      6.7760                 7.8437                 5.4926
 Frc consts  --      0.6654                 1.0175                 0.9314
 IR Inten    --      3.9086                 9.9234                 0.6441

                     16                     17                     18
                      A                      A                      A
 Frequencies --    563.1820               586.3793               608.6541
 Red. masses --      5.4779                 4.9713                 3.8121
 Frc consts  --      1.0237                 1.0071                 0.8321
 IR Inten    --     24.8968                 7.1280                 8.4229

                     19                     20                     21
                      A                      A                      A
 Frequencies --    621.5038               665.6140               697.3507
 Red. masses --      1.1723                 2.5034                 2.2998
 Frc consts  --      0.2668                 0.6535                 0.6589
 IR Inten    --     18.3303                29.2898                71.8920

                     22                     23                     24
                      A                      A                      A
 Frequencies --    707.9323               734.5915               807.6567
 Red. masses --      4.6058                 6.3923                 2.2538
 Frc consts  --      1.3600                 2.0323                 0.8662
 IR Inten    --     26.3494                90.7621                 4.4052

                     25                     26                     27
                      A                      A                      A
 Frequencies --    826.4050               861.8857               899.3514
 Red. masses --      2.6425                 5.0594                 1.4343
 Frc consts  --      1.0633                 2.2143                 0.6835
 IR Inten    --     31.3224                48.5531                 4.5690

                     28                     29                     30
                      A                      A                      A
 Frequencies --    916.1871               985.9897              1023.6774
 Red. masses --      1.4512                 4.0134                 2.5164
 Frc consts  --      0.7177                 2.2988                 1.5537
 IR Inten    --     56.0484                17.8965                18.6278

                     31                     32                     33
                      A                      A                      A
 Frequencies --   1048.6280              1058.8315              1090.2648
 Red. masses --      1.3877                 3.0335                 3.6862
 Frc consts  --      0.8990                 2.0038                 2.5816
 IR Inten    --     11.0455                17.3579               171.1750

                     34                     35                     36
                      A                      A                      A
 Frequencies --   1110.5247              1165.9114              1256.9063
 Red. masses --      3.3400                 1.8796                 1.7668
 Frc consts  --      2.4269                 1.5054                 1.6446
 IR Inten    --     18.0580                11.1895                61.1402

                     37                     38                     39
                      A                      A                      A
 Frequencies --   1293.2568              1350.8220              1375.8871
 Red. masses --      1.5913                 2.9076                 4.0373
 Frc consts  --      1.5681                 3.1259                 4.5030
 IR Inten    --     72.1930                46.9878                73.9811

                     40                     41                     42
                      A                      A                      A
 Frequencies --   1393.9147              1453.7181              1473.3116
 Red. masses --      3.9634                 3.2994                 4.2903
 Frc consts  --      4.5372                 4.1081                 5.4869
 IR Inten    --     49.7249                71.2653                41.7053

                     43                     44                     45
                      A                      A                      A
 Frequencies --   1604.3542              1672.0079              1732.3169
 Red. masses --      1.4089                 9.8312                10.2060
 Frc consts  --      2.1366                16.1932                18.0451
 IR Inten    --    332.9681                66.2674                75.7114

                     46                     47                     48
                      A                      A                      A
 Frequencies --   3155.5863              3229.6340              3266.1335
 Red. masses --      1.0878                 1.0911                 1.1078
 Frc consts  --      6.3819                 6.7054                 6.9630
 IR Inten    --     11.9307                 7.9898                 2.3804

                     49                     50                     51
                      A                      A                      A
 Frequencies --   3427.2273              3473.1834              3701.9522
 Red. masses --      1.0735                 1.0546                 1.0934
 Frc consts  --      7.4294                 7.4953                 8.8283
 IR Inten    --      1.9129                83.7293                87.4796

 - Thermochemistry -
 -------------------
 Temperature   298.150 Kelvin.  Pressure   1.00000 Atm.
 Atom     1 has atomic number  7 and mass  14.00307

 Molecular mass:   205.99724 amu.
 Principal axes and moments of inertia in atomic units:
                           1         2         3
     Eigenvalues --  1684.185603393.695353938.80350
           X            0.99976   0.01901   0.01059
           Y           -0.01915   0.99974   0.01240
           Z           -0.01035  -0.01260   0.99987
 This molecule is an asymmetric top.
 Rotational symmetry number  1.
 Warning -- assumption of classical behavior for rotation
           may cause significant error
 Rotational temperatures (Kelvin)      0.05143     0.02552     0.02199
 Rotational constants (GHZ):           1.07158     0.53179     0.45820
 Zero-point vibrational energy     335017.1 (Joules/Mol)
                                   80.07100 (Kcal/Mol)
 Warning -- explicit consideration of  18 degrees of freedom as
           vibrations may cause significant error
 Vibrational temperatures:     65.05    94.76   167.06   252.39   274.08
          (Kelvin)            354.13   381.40   420.65   447.09   485.94
                              500.78   521.64   587.38   675.10   771.88
                              810.29   843.67   875.72   894.21   957.67
                             1003.33  1018.56  1056.91  1162.04  1189.01
                             1240.06  1293.97  1318.19  1418.62  1472.84
                             1508.74  1523.42  1568.65  1597.80  1677.49
                             1808.41  1860.71  1943.53  1979.59  2005.53
                             2091.58  2119.77  2308.31  2405.65  2492.42
                             4540.18  4646.72  4699.24  4931.02  4997.14
                             5326.28

 Zero-point correction=                           0.127601 (Hartree/Particle)
 Thermal correction to Energy=                    0.139277
 Thermal correction to Enthalpy=                  0.140221
 Thermal correction to Gibbs Free Energy=         0.089415
 Sum of electronic and zero-point Energies=          -1252.151984
 Sum of electronic and thermal Energies=             -1252.140309
 Sum of electronic and thermal Enthalpies=           -1252.139365
 Sum of electronic and thermal Free Energies=        -1252.190171

                     E (Thermal)             CV                S
                      KCal/Mol        Cal/Mol-Kelvin    Cal/Mol-Kelvin
 Total                   87.397             44.492            106.930
 Electronic               0.000              0.000              0.000
 Translational            0.889              2.981             41.872
 Rotational               0.889              2.981             31.488
 Vibrational             85.620             38.530             33.571
 Vibration     1          0.595              1.979              5.016
 Vibration     2          0.597              1.971              4.273
 Vibration     3          0.608              1.936              3.164
 Vibration     4          0.627              1.873              2.377
 Vibration     5          0.634              1.853              2.223
 Vibration     6          0.661              1.769              1.758
 Vibration     7          0.671              1.737              1.628
 Vibration     8          0.688              1.688              1.460
 Vibration     9          0.700              1.653              1.358
 Vibration    10          0.718              1.600              1.223
 Vibration    11          0.726              1.579              1.175
 Vibration    12          0.736              1.549              1.111
 Vibration    13          0.773              1.452              0.933
 Vibration    14          0.826              1.318              0.740
 Vibration    15          0.891              1.169              0.573
 Vibration    16          0.919              1.111              0.518
 Vibration    17          0.943              1.061              0.474
 Vibration    18          0.968              1.013              0.435

 Optimization completed.
    -- Stationary point found.
 Normal termination of Gaussian 16 at Tue May 16 23:21:46 2023.
