 Gaussian 16, Revision A.03,
 Gaussian 16:  ES64L-G16RevA.03 25-Dec-2016

 -----------------------------
 # opt freq b3lyp/6-31g(2df,p)
 -----------------------------

 -------------------
 Title Card Required
 -------------------
 Symbolic Z-matrix:
 Charge =  0 Multiplicity = 1

 SCF Done:  E(RB3LYP) =  -1252.25208561     A.U. after   17 cycles
 SCF Done:  E(RB3LYP) =  -1252.28213899     A.U. after   15 cycles
 SCF Done:  E(RB3LYP) =  -1252.29710657     A.U. after   15 cycles
 SCF Done:  E(RB3LYP) =  -1252.29918561     A.U. after   15 cycles
 SCF Done:  E(RB3LYP) =  -1252.30059719     A.U. after   15 cycles
 SCF Done:  E(RB3LYP) =  -1252.30146763     A.U. after   13 cycles
 SCF Done:  E(RB3LYP) =  -1252.30181798     A.U. after   14 cycles
 SCF Done:  E(RB3LYP) =  -1252.30192617     A.U. after   13 cycles
 SCF Done:  E(RB3LYP) =  -1252.30199283     A.U. after   13 cycles
 SCF Done:  E(RB3LYP) =  -1252.30208522     A.U. after   13 cycles
 SCF Done:  E(RB3LYP) =  -1252.30210019     A.U. after   12 cycles
 SCF Done:  E(RB3LYP) =  -1252.30210452     A.U. after    9 cycles
 SCF Done:  E(RB3LYP) =  -1252.30210571     A.U. after    9 cycles
 Optimization completed.
    -- Stationary point found.
 Normal termination of Gaussian 16 at Mon May 15 19:04:00 2023.

 ----------------------------------------------------------------------
 #N Geom=AllCheck Guess=TCheck SCRF=Check GenChk RB3LYP/6-31G(2df,p) Fr
 eq
 ----------------------------------------------------------------------

 Structure from the checkpoint file:  "NdC1CdC2SNdC2C2dS1CdCCdC2.chk"
 -------------------
 Title Card Required
 -------------------
 Charge =  0 Multiplicity = 1

                         Standard orientation:
 ---------------------------------------------------------------------
 Center     Atomic      Atomic             Coordinates (Angstroms)
 Number     Number       Type             X           Y           Z
 ---------------------------------------------------------------------
      1          7           0       -0.842885    2.963639    0.392242
      2          6           0       -0.131599    1.945236    0.147978
      3          6           0        1.288631    1.679357    0.251793
      4          6           0        1.773837    0.444314    0.008490
      5         16           0        3.294308   -0.426787    0.136295
      6          7           0        2.061201   -1.730966   -0.128814
      7          6           0        1.084827   -0.844021   -0.207021
      8          6           0       -0.322787   -0.964694   -0.242890
      9         16           0       -1.071384    0.575169   -0.752479
     10          6           0       -2.689762    0.458037   -0.069235
     11          6           0       -3.181204   -0.737258    0.348610
     12          6           0       -2.479427   -1.970141    0.417267
     13          6           0       -1.125747   -2.029566    0.175214
     14          1           0       -0.279154    3.765936    0.686030
     15          1           0        1.921080    2.481006    0.628164
     16          1           0       -3.234275    1.389681   -0.100952
     17          1           0       -4.217753   -0.726478    0.678380
     18          1           0       -3.002803   -2.852012    0.760647
     19          1           0       -0.582694   -2.948535    0.381440
 ---------------------------------------------------------------------

 SCF Done:  E(RB3LYP) =  -1252.30210571     A.U. after    1 cycles

 The electronic state is 1-A.
 Alpha  occ. eigenvalues --  -88.98132 -88.90907 -14.34647 -14.33284 -10.28381
 Alpha  occ. eigenvalues --  -10.25265 -10.24124 -10.22947 -10.22170 -10.22161
 Alpha  occ. eigenvalues --  -10.21842 -10.21145 -10.18211  -8.03737  -7.96901
 Alpha  occ. eigenvalues --   -6.00041  -6.00027  -5.99474  -5.93391  -5.93080
 Alpha  occ. eigenvalues --   -5.92441  -0.95932  -0.94234  -0.88351  -0.81780
 Alpha  occ. eigenvalues --   -0.79072  -0.78587  -0.70999  -0.68888  -0.64842
 Alpha  occ. eigenvalues --   -0.61242  -0.59349  -0.53762  -0.53116  -0.51774
 Alpha  occ. eigenvalues --   -0.48959  -0.47242  -0.46469  -0.44094  -0.43376
 Alpha  occ. eigenvalues --   -0.41860  -0.39684  -0.39051  -0.37116  -0.36189
 Alpha  occ. eigenvalues --   -0.33791  -0.32540  -0.30140  -0.29534  -0.27693
 Alpha  occ. eigenvalues --   -0.27416  -0.23241  -0.17213
 Alpha virt. eigenvalues --   -0.09121  -0.05146  -0.03301  -0.01164   0.00984
 Alpha virt. eigenvalues --    0.02189   0.05915   0.07388   0.07975   0.09021
 Alpha virt. eigenvalues --    0.10714   0.11669   0.14074   0.14774   0.16847

 Mulliken charges:
               1
     1  N   -0.492523
     2  C    0.237813
     3  C   -0.305073
     4  C    0.171885
     5  S   -0.017030
     6  N   -0.411656
     7  C    0.266895
     8  C   -0.046178
     9  S    0.265775
    10  C   -0.235575
    11  C   -0.043632
    12  C   -0.149522
    13  C   -0.108323
    14  H    0.241253
    15  H    0.127189
    16  H    0.150239
    17  H    0.120019
    18  H    0.095443
    19  H    0.133001
 Sum of Mulliken charges =  -0.00000

 Dipole moment (field-independent basis, Debye):
    X=             -2.0863    Y=              2.7822    Z=              0.5708  Tot=              3.5241
 Quadrupole moment (field-independent basis, Debye-Ang):
   XX=            -86.5135   YY=            -83.8885   ZZ=            -90.1029
   XY=             10.1411   XZ=              0.3436   YZ=              0.0137

  Exact polarizability: 238.996   1.301 178.284  -3.328   2.194  70.158
 Approx polarizability: 477.582 -36.654 372.654 -10.125  10.324 128.065

                      1                      2                      3
                      A                      A                      A
 Frequencies --     54.2874                89.0737               130.4834
 Red. masses --      3.9368                 7.1786                 6.2408
 Frc consts  --      0.0068                 0.0336                 0.0626
 IR Inten    --      0.9783                 3.6976                 2.4677

                      4                      5                      6
                      A                      A                      A
 Frequencies --    154.4061               231.0890               262.3207
 Red. masses --      5.9246                 7.7605                 7.7063
 Frc consts  --      0.0832                 0.2442                 0.3124
 IR Inten    --      2.9238                 0.3681                 7.2060

                      7                      8                      9
                      A                      A                      A
 Frequencies --    292.9499               313.0494               342.3778
 Red. masses --      9.4126                 7.8942                 3.9705
 Frc consts  --      0.4759                 0.4558                 0.2742
 IR Inten    --      0.6499                 6.2242                 0.1480

                     10                     11                     12
                      A                      A                      A
 Frequencies --    390.2367               423.6785               437.1376
 Red. masses --      7.6528                 6.0613                 5.9924
 Frc consts  --      0.6866                 0.6410                 0.6747
 IR Inten    --      1.9556                11.0831                 9.5080

                     13                     14                     15
                      A                      A                      A
 Frequencies --    469.6625               515.1129               537.9865
 Red. masses --      7.4767                 4.9570                 2.4418
 Frc consts  --      0.9717                 0.7749                 0.4164
 IR Inten    --      6.0259                16.9729                28.0899

                     16                     17                     18
                      A                      A                      A
 Frequencies --    552.7827               583.1701               622.9223
 Red. masses --      7.9340                 8.8852                 4.9645
 Frc consts  --      1.4284                 1.7804                 1.1350
 IR Inten    --      0.7445                 8.1897                17.3184

                     19                     20                     21
                      A                      A                      A
 Frequencies --    654.3400               708.7359               719.8382
 Red. masses --      2.0747                 3.5724                 3.8403
 Frc consts  --      0.5234                 1.0573                 1.1724
 IR Inten    --     11.2037                 3.3232                16.7404

                     22                     23                     24
                      A                      A                      A
 Frequencies --    748.8519               756.2162               790.4101
 Red. masses --      1.5449                 7.1179                 1.2453
 Frc consts  --      0.5104                 2.3982                 0.4584
 IR Inten    --      7.8432                 8.7537                45.3168

                     25                     26                     27
                      A                      A                      A
 Frequencies --    844.8080               883.0903               885.3047
 Red. masses --      5.9179                 6.7553                 1.5747
 Frc consts  --      2.4885                 3.1039                 0.7272
 IR Inten    --      2.7821                10.1330                56.3338

                     28                     29                     30
                      A                      A                      A
 Frequencies --    959.3062               966.1675               994.4078
 Red. masses --      1.3108                 1.3059                 3.5050
 Frc consts  --      0.7107                 0.7182                 2.0420
 IR Inten    --      2.0648                 1.7073                 5.1651

                     31                     32                     33
                      A                      A                      A
 Frequencies --   1014.5646              1041.1859              1141.3742
 Red. masses --      3.9110                 2.1014                 1.9024
 Frc consts  --      2.3719                 1.3422                 1.4602
 IR Inten    --     39.4794                25.1675                22.5005

                     34                     35                     36
                      A                      A                      A
 Frequencies --   1184.6622              1217.5866              1239.5856
 Red. masses --      1.0982                 1.5172                 1.7480
 Frc consts  --      0.9081                 1.3252                 1.5825
 IR Inten    --      8.3592                65.4183               191.3990

                     37                     38                     39
                      A                      A                      A
 Frequencies --   1288.6069              1340.1466              1390.1018
 Red. masses --      1.6127                 1.5887                 2.6991
 Frc consts  --      1.5777                 1.6811                 3.0730
 IR Inten    --     37.6534                10.8559                10.5139

                     40                     41                     42
                      A                      A                      A
 Frequencies --   1468.3083              1484.5917              1550.4049
 Red. masses --      5.8240                 2.9696                 7.7820
 Frc consts  --      7.3978                 3.8563                11.0212
 IR Inten    --    438.4581                71.9213               119.4483

                     43                     44                     45
                      A                      A                      A
 Frequencies --   1634.2680              1642.7642              1684.5164
 Red. masses --      5.7424                 9.0107                 9.2118
 Frc consts  --      9.0364                14.3272                15.4009
 IR Inten    --     88.7451                72.6283               251.4157

                     46                     47                     48
                      A                      A                      A
 Frequencies --   3144.4632              3157.6874              3168.1353
 Red. masses --      1.0897                 1.0866                 1.0875
 Frc consts  --      6.3481                 6.3833                 6.4311
 IR Inten    --      5.5411                10.5944                 0.3012

                     49                     50                     51
                      A                      A                      A
 Frequencies --   3220.4636              3249.5843              3429.7365
 Red. masses --      1.0919                 1.0923                 1.0745
 Frc consts  --      6.6723                 6.7961                 7.4468
 IR Inten    --      3.9658                 7.1327                 1.3464

 - Thermochemistry -
 -------------------
 Temperature   298.150 Kelvin.  Pressure   1.00000 Atm.
 Atom     1 has atomic number  7 and mass  14.00307

 Molecular mass:   205.99724 amu.
 Principal axes and moments of inertia in atomic units:
                           1         2         3
     Eigenvalues --  1630.640803194.630954615.88870
           X            0.99959   0.02828  -0.00489
           Y           -0.02828   0.99960   0.00038
           Z            0.00490  -0.00024   0.99999
 This molecule is an asymmetric top.
 Rotational symmetry number  1.
 Warning -- assumption of classical behavior for rotation
           may cause significant error
 Rotational temperatures (Kelvin)      0.05312     0.02711     0.01876
 Rotational constants (GHZ):           1.10677     0.56493     0.39098
 Zero-point vibrational energy     334995.9 (Joules/Mol)
                                   80.06594 (Kcal/Mol)
 Warning -- explicit consideration of  17 degrees of freedom as
           vibrations may cause significant error
 Vibrational temperatures:     78.11   128.16   187.74   222.16   332.49
          (Kelvin)            377.42   421.49   450.41   492.61   561.46
                              609.58   628.94   675.74   741.13   774.04
                              795.33   839.05   896.25   941.45  1019.71
                             1035.69  1077.43  1088.03  1137.22  1215.49
                             1270.57  1273.76  1380.23  1390.10  1430.73
                             1459.73  1498.03  1642.18  1704.46  1751.84
                             1783.49  1854.02  1928.17  2000.05  2112.57
                             2136.00  2230.69  2351.35  2363.57  2423.64
                             4524.18  4543.21  4558.24  4633.53  4675.43
                             4934.63

 Zero-point correction=                           0.127593 (Hartree/Particle)
 Thermal correction to Energy=                    0.138656
 Thermal correction to Enthalpy=                  0.139600
 Thermal correction to Gibbs Free Energy=         0.090274
 Sum of electronic and zero-point Energies=          -1252.174513
 Sum of electronic and thermal Energies=             -1252.163450
 Sum of electronic and thermal Enthalpies=           -1252.162506
 Sum of electronic and thermal Free Energies=        -1252.211832

                     E (Thermal)             CV                S
                      KCal/Mol        Cal/Mol-Kelvin    Cal/Mol-Kelvin
 Total                   87.008             43.142            103.816
 Electronic               0.000              0.000              0.000
 Translational            0.889              2.981             41.872
 Rotational               0.889              2.981             31.553
 Vibrational             85.230             37.180             30.391
 Vibration     1          0.596              1.976              4.655
 Vibration     2          0.602              1.957              3.680
 Vibration     3          0.612              1.923              2.939
 Vibration     4          0.620              1.898              2.617
 Vibration     5          0.653              1.793              1.870
 Vibration     6          0.670              1.742              1.646
 Vibration     7          0.688              1.687              1.457
 Vibration     8          0.701              1.649              1.346
 Vibration     9          0.722              1.591              1.201
 Vibration    10          0.758              1.491              0.999
 Vibration    11          0.786              1.419              0.880
 Vibration    12          0.797              1.389              0.836
 Vibration    13          0.827              1.317              0.738
 Vibration    14          0.870              1.217              0.621
 Vibration    15          0.893              1.166              0.570
 Vibration    16          0.908              1.134              0.538
 Vibration    17          0.940              1.068              0.480

 Optimization completed.
    -- Stationary point found.
 Normal termination of Gaussian 16 at Mon May 15 20:02:11 2023.
