 Gaussian 16, Revision A.03,
 Gaussian 16:  ES64L-G16RevA.03 25-Dec-2016

 -----------------------------
 # opt freq b3lyp/6-31g(2df,p)
 -----------------------------

 -------------------
 Title Card Required
 -------------------
 Symbolic Z-matrix:
 Charge =  0 Multiplicity = 1

 SCF Done:  E(RB3LYP) =  -1235.69558106     A.U. after   25 cycles
 SCF Done:  E(RB3LYP) =  -1235.80618166     A.U. after   19 cycles
 SCF Done:  E(RB3LYP) =  -1236.03137381     A.U. after   19 cycles
 SCF Done:  E(RB3LYP) =  -1236.07800679     A.U. after   19 cycles
 SCF Done:  E(RB3LYP) =  -1235.89829909     A.U. after   22 cycles
 SCF Done:  E(RB3LYP) =  -1236.19415294     A.U. after   15 cycles
 SCF Done:  E(RB3LYP) =  -1232.69220525     A.U. after   25 cycles
 SCF Done:  E(RB3LYP) =  -1235.57156832     A.U. after   23 cycles
 SCF Done:  E(RB3LYP) =  -1236.20974965     A.U. after   14 cycles
 SCF Done:  E(RB3LYP) =  -1236.18507428     A.U. after   16 cycles
 SCF Done:  E(RB3LYP) =  -1236.34144789     A.U. after    9 cycles
 SCF Done:  E(RB3LYP) =  -1236.34145232     A.U. after    9 cycles
 SCF Done:  E(RB3LYP) =  -1236.34145809     A.U. after    9 cycles
 SCF Done:  E(RB3LYP) =  -1236.34146144     A.U. after    8 cycles
 SCF Done:  E(RB3LYP) =  -1236.34146303     A.U. after    8 cycles
 SCF Done:  E(RB3LYP) =  -1236.34146337     A.U. after    8 cycles
 SCF Done:  E(RB3LYP) =  -1236.34146345     A.U. after    8 cycles
 SCF Done:  E(RB3LYP) =  -1236.34146350     A.U. after    8 cycles
 SCF Done:  E(RB3LYP) =  -1236.34146352     A.U. after    7 cycles
 Optimization completed.
    -- Stationary point found.
 Normal termination of Gaussian 16 at Fri May 19 20:19:02 2023.

 ----------------------------------------------------------------------
 #N Geom=AllCheck Guess=TCheck SCRF=Check GenChk RB3LYP/6-31G(2df,p) Fr
 eq
 ----------------------------------------------------------------------

 Structure from the checkpoint file:  "Ndc1cqdSrsccc2ccccc12.chk"
 -------------------
 Title Card Required
 -------------------
 Charge =  0 Multiplicity = 1

                         Standard orientation:
 ---------------------------------------------------------------------
 Center     Atomic      Atomic             Coordinates (Angstroms)
 Number     Number       Type             X           Y           Z
 ---------------------------------------------------------------------
      1          7           0        0.491426    2.180421    0.517083
      2          6           0        0.402919    0.959471    0.166920
      3          6           0        1.781057    0.193146   -0.030601
      4         16           0        3.186969    1.047702    0.004835
      5         16           0        2.027375   -1.531650   -0.303533
      6          6           0        0.340490   -2.028272   -0.375342
      7          6           0       -0.398318   -1.670764    0.683461
      8          6           0       -1.530449   -0.779404    0.369050
      9          6           0       -2.891176   -1.060092    0.363725
     10          6           0       -3.794429   -0.091680   -0.065394
     11          6           0       -3.328717    1.157141   -0.471207
     12          6           0       -1.970635    1.452600   -0.428774
     13          6           0       -1.040739    0.491389   -0.009957
     14          1           0        1.477786    2.460021    0.596114
     15          1           0       -0.092034   -2.091608   -1.369692
     16          1           0        0.055718   -1.617964    1.671606
     17          1           0       -3.234758   -2.041549    0.671355
     18          1           0       -4.855864   -0.313942   -0.090581
     19          1           0       -4.028055    1.910482   -0.817590
     20          1           0       -1.612297    2.433558   -0.712904
 ---------------------------------------------------------------------

 SCF Done:  E(RB3LYP) =  -1236.34146352     A.U. after    1 cycles

 The electronic state is 1-A.
 Alpha  occ. eigenvalues --  -88.92515 -88.86480 -14.33052 -10.29670 -10.26911
 Alpha  occ. eigenvalues --  -10.22699 -10.22128 -10.21968 -10.21897 -10.20422
 Alpha  occ. eigenvalues --  -10.20354 -10.20002 -10.19945  -7.98566  -7.93077
 Alpha  occ. eigenvalues --   -5.95009  -5.94609  -5.94278  -5.89388  -5.89255
 Alpha  occ. eigenvalues --   -5.88669  -0.93503  -0.88070  -0.85840  -0.80857
 Alpha  occ. eigenvalues --   -0.76520  -0.76100  -0.70875  -0.65475  -0.62548
 Alpha  occ. eigenvalues --   -0.60076  -0.57928  -0.54891  -0.51917  -0.49846
 Alpha  occ. eigenvalues --   -0.46983  -0.46564  -0.44524  -0.43860  -0.43101
 Alpha  occ. eigenvalues --   -0.40180  -0.39259  -0.38273  -0.37049  -0.36523
 Alpha  occ. eigenvalues --   -0.34935  -0.32322  -0.28806  -0.27302  -0.26371
 Alpha  occ. eigenvalues --   -0.25622  -0.25116  -0.23843
 Alpha virt. eigenvalues --   -0.10740  -0.06289  -0.03929  -0.01226   0.02355
 Alpha virt. eigenvalues --    0.03579   0.07910   0.08480   0.09958   0.11218
 Alpha virt. eigenvalues --    0.12961   0.13965   0.15146   0.15616   0.16343

 Mulliken charges:
               1
     1  N   -0.415257
     2  C    0.131134
     3  C    0.127751
     4  S   -0.282005
     5  S   -0.012635
     6  C   -0.122090
     7  C   -0.213768
     8  C    0.212523
     9  C   -0.237077
    10  C   -0.104162
    11  C   -0.113426
    12  C   -0.149384
    13  C    0.195773
    14  H    0.260166
    15  H    0.135198
    16  H    0.136755
    17  H    0.108408
    18  H    0.108154
    19  H    0.107351
    20  H    0.126589
 Sum of Mulliken charges =  -0.00000

 Dipole moment (field-independent basis, Debye):
    X=             -3.1760    Y=             -1.6949    Z=             -0.3451  Tot=              3.6165
 Quadrupole moment (field-independent basis, Debye-Ang):
   XX=            -87.9361   YY=            -88.4210   ZZ=            -87.6962
   XY=              0.3929   XZ=              1.7031   YZ=             -2.2805

  Exact polarizability: 213.833  13.706 154.567   0.905  -2.730  79.730
 Approx polarizability: 339.698  45.682 317.070  -3.307  -1.511 151.298

                      1                      2                      3
                      A                      A                      A
 Frequencies --     15.7013                85.3376               110.7015
 Red. masses --      9.6983                 6.2756                 4.0666
 Frc consts  --      0.0014                 0.0269                 0.0294
 IR Inten    --      0.0731                 0.5599                 0.4828

                      4                      5                      6
                      A                      A                      A
 Frequencies --    180.1170               234.4979               268.1462
 Red. masses --      2.9938                 6.4588                 7.1368
 Frc consts  --      0.0572                 0.2093                 0.3023
 IR Inten    --      0.5187                 0.3928                 0.7310

                      7                      8                      9
                      A                      A                      A
 Frequencies --    299.2907               337.7788               368.0002
 Red. masses --     10.9559                 5.0114                 8.7298
 Frc consts  --      0.5782                 0.3369                 0.6966
 IR Inten    --      3.0772                 2.0623                 1.3520

                     10                     11                     12
                      A                      A                      A
 Frequencies --    385.3747               432.1028               435.3139
 Red. masses --      5.5645                 6.1006                 4.2058
 Frc consts  --      0.4869                 0.6711                 0.4696
 IR Inten    --      1.3190                13.3455                 3.8435

                     13                     14                     15
                      A                      A                      A
 Frequencies --    459.9458               528.1358               572.5567
 Red. masses --      5.4513                 4.6067                 5.1233
 Frc consts  --      0.6795                 0.7571                 0.9895
 IR Inten    --      4.6943                 1.5122                 1.1159

                     16                     17                     18
                      A                      A                      A
 Frequencies --    616.8278               646.5210               689.2399
 Red. masses --      5.2868                 5.9185                 5.1694
 Frc consts  --      1.1851                 1.4576                 1.4469
 IR Inten    --      1.4800                15.9774                 2.2031

                     19                     20                     21
                      A                      A                      A
 Frequencies --    754.6776               786.3930               797.9564
 Red. masses --      2.5154                 1.9415                 1.9139
 Frc consts  --      0.8441                 0.7074                 0.7180
 IR Inten    --     30.3225                35.9726                27.8946

                     22                     23                     24
                      A                      A                      A
 Frequencies --    807.4101               830.1171               856.7828
 Red. masses --      4.0038                 3.9617                 3.2393
 Frc consts  --      1.5379                 1.6085                 1.4010
 IR Inten    --     15.2223                11.1290                 4.3768

                     25                     26                     27
                      A                      A                      A
 Frequencies --    901.1525               909.1778               957.5336
 Red. masses --      5.6371                 1.7862                 1.3367
 Frc consts  --      2.6971                 0.8699                 0.7221
 IR Inten    --     70.9235                21.9404                 2.0594

                     28                     29                     30
                      A                      A                      A
 Frequencies --    968.2470               988.8237              1004.2624
 Red. masses --      1.2265                 1.2830                 1.2161
 Frc consts  --      0.6775                 0.7391                 0.7226
 IR Inten    --     53.0490                 0.4075                20.0908

                     31                     32                     33
                      A                      A                      A
 Frequencies --   1059.2645              1080.3595              1108.2667
 Red. masses --      2.6231                 5.4945                 2.8784
 Frc consts  --      1.7341                 3.7785                 2.0830
 IR Inten    --     14.7954                99.7933                16.7118

                     34                     35                     36
                      A                      A                      A
 Frequencies --   1168.3254              1188.6344              1214.4748
 Red. masses --      1.8374                 1.1315                 1.5898
 Frc consts  --      1.4777                 0.9419                 1.3815
 IR Inten    --     13.3531                 1.5454                 0.6027

                     37                     38                     39
                      A                      A                      A
 Frequencies --   1239.6111              1290.7527              1318.1134
 Red. masses --      1.4523                 1.8715                 1.4066
 Frc consts  --      1.3148                 1.8371                 1.4398
 IR Inten    --     13.1834                18.3920                13.0920

                     40                     41                     42
                      A                      A                      A
 Frequencies --   1331.1555              1335.4436              1472.8547
 Red. masses --      1.7367                 2.9752                 2.2207
 Frc consts  --      1.8132                 3.1262                 2.8383
 IR Inten    --     86.7518                58.8651                 4.8453

                     43                     44                     45
                      A                      A                      A
 Frequencies --   1491.6514              1598.0945              1607.6240
 Red. masses --      2.7517                 5.6289                 6.6741
 Frc consts  --      3.6074                 8.4699                10.1628
 IR Inten    --     13.9682                 1.6377                 9.2054

                     46                     47                     48
                      A                      A                      A
 Frequencies --   1632.4974              1645.6958              3138.6583
 Red. masses --      6.8960                 8.7699                 1.0887
 Frc consts  --     10.8281                13.9941                 6.3190
 IR Inten    --     31.1465                 6.0376                 5.6011

                     49                     50                     51
                      A                      A                      A
 Frequencies --   3162.1680              3177.2194              3188.8589
 Red. masses --      1.0898                 1.0849                 1.0900
 Frc consts  --      6.4207                 6.4525                 6.5306
 IR Inten    --      6.7447                 0.5286                10.7601

                     52                     53                     54
                      A                      A                      A
 Frequencies --   3200.3442              3221.2709              3348.5166
 Red. masses --      1.0962                 1.0924                 1.0718
 Frc consts  --      6.6152                 6.6785                 7.0807
 IR Inten    --     18.8954                 2.5137                35.9880

 - Thermochemistry -
 -------------------
 Temperature   298.150 Kelvin.  Pressure   1.00000 Atm.
 Atom     1 has atomic number  7 and mass  14.00307

 Molecular mass:   205.00199 amu.
 Principal axes and moments of inertia in atomic units:
                           1         2         3
     Eigenvalues --  1401.506773858.664765051.97815
           X            0.99999   0.00035   0.00368
           Y           -0.00032   0.99996  -0.00891
           Z           -0.00369   0.00891   0.99995
 This molecule is an asymmetric top.
 Rotational symmetry number  1.
 Warning -- assumption of classical behavior for rotation
           may cause significant error
 Rotational temperatures (Kelvin)      0.06180     0.02245     0.01714
 Rotational constants (GHZ):           1.28771     0.46771     0.35723
 Zero-point vibrational energy     373521.9 (Joules/Mol)
                                   89.27387 (Kcal/Mol)
 Warning -- explicit consideration of  16 degrees of freedom as
           vibrations may cause significant error
 Vibrational temperatures:     22.59   122.78   159.27   259.15   337.39
          (Kelvin)            385.80   430.61   485.99   529.47   554.47
                              621.70   626.32   661.76   759.87   823.78
                              887.48   930.20   991.66  1085.81  1131.44
                             1148.08  1161.68  1194.35  1232.72  1296.56
                             1308.10  1377.68  1393.09  1422.70  1444.91
                             1524.05  1554.40  1594.55  1680.96  1710.18
                             1747.36  1783.52  1857.11  1896.47  1915.24
                             1921.41  2119.11  2146.15  2299.30  2313.01
                             2348.80  2367.79  4515.83  4549.65  4571.31
                             4588.06  4604.58  4634.69  4817.77

 Zero-point correction=                           0.142267 (Hartree/Particle)
 Thermal correction to Energy=                    0.153046
 Thermal correction to Enthalpy=                  0.153990
 Thermal correction to Gibbs Free Energy=         0.103960
 Sum of electronic and zero-point Energies=          -1236.199197
 Sum of electronic and thermal Energies=             -1236.188417
 Sum of electronic and thermal Enthalpies=           -1236.187473
 Sum of electronic and thermal Free Energies=        -1236.237503

                     E (Thermal)             CV                S
                      KCal/Mol        Cal/Mol-Kelvin    Cal/Mol-Kelvin
 Total                   96.038             41.801            105.298
 Electronic               0.000              0.000              0.000
 Translational            0.889              2.981             41.858
 Rotational               0.889              2.981             31.680
 Vibrational             94.260             35.840             31.760
 Vibration     1          0.593              1.986              7.115
 Vibration     2          0.601              1.959              3.764
 Vibration     3          0.607              1.941              3.257
 Vibration     4          0.629              1.867              2.327
 Vibration     5          0.654              1.788              1.844
 Vibration     6          0.673              1.732              1.608
 Vibration     7          0.692              1.675              1.421
 Vibration     8          0.718              1.600              1.223
 Vibration     9          0.741              1.538              1.088
 Vibration    10          0.754              1.501              1.018
 Vibration    11          0.793              1.400              0.852
 Vibration    12          0.796              1.393              0.841
 Vibration    13          0.818              1.339              0.766
 Vibration    14          0.883              1.188              0.591
 Vibration    15          0.929              1.091              0.499
 Vibration    16          0.977              0.996              0.422

                           ! Non-Optimized Parameters !
 Normal termination of Gaussian 16 at Fri May 19 21:22:37 2023.
