 Gaussian 16, Revision A.03,
 Gaussian 16:  ES64L-G16RevA.03 25-Dec-2016

 -----------------------------
 # opt freq b3lyp/6-31g(2df,p)
 -----------------------------

 -------------------
 Title Card Required
 -------------------
 Symbolic Z-matrix:
 Charge =  0 Multiplicity = 1

 SCF Done:  E(RB3LYP) =  -782.550832262     A.U. after   25 cycles
 SCF Done:  E(RB3LYP) =  -781.304607093     A.U. after   29 cycles
 SCF Done:  E(RB3LYP) =  -782.485928069     A.U. after   19 cycles
 SCF Done:  E(RB3LYP) =  -782.606840854     A.U. after   18 cycles
 SCF Done:  E(RB3LYP) =  -782.652336075     A.U. after   16 cycles
 SCF Done:  E(RB3LYP) =  -782.731381353     A.U. after   17 cycles
 SCF Done:  E(RB3LYP) =  -782.782584674     A.U. after   17 cycles
 SCF Done:  E(RB3LYP) =  -782.828577179     A.U. after   16 cycles
 SCF Done:  E(RB3LYP) =  -782.878641797     A.U. after   16 cycles
 SCF Done:  E(RB3LYP) =  -782.907160523     A.U. after   17 cycles
 SCF Done:  E(RB3LYP) =  -783.223240856     A.U. after   10 cycles
 SCF Done:  E(RB3LYP) =  -783.223247156     A.U. after    9 cycles
 SCF Done:  E(RB3LYP) =  -783.223259348     A.U. after   11 cycles
 SCF Done:  E(RB3LYP) =  -783.223264623     A.U. after   10 cycles
 SCF Done:  E(RB3LYP) =  -783.223268980     A.U. after   11 cycles
 SCF Done:  E(RB3LYP) =  -783.223270317     A.U. after    8 cycles
 SCF Done:  E(RB3LYP) =  -783.223271236     A.U. after    8 cycles
 SCF Done:  E(RB3LYP) =  -783.223271521     A.U. after    7 cycles
 SCF Done:  E(RB3LYP) =  -783.223271625     A.U. after    7 cycles
 Optimization completed.
    -- Stationary point found.

 The electronic state is 1-A.
 Alpha  occ. eigenvalues --  -19.14598 -19.13864 -14.31845 -10.28049 -10.27840
 Alpha  occ. eigenvalues --  -10.25304 -10.24395 -10.23790 -10.23385 -10.22195
 Alpha  occ. eigenvalues --  -10.21875 -10.21788 -10.21729 -10.21585 -10.21000
 Alpha  occ. eigenvalues --  -10.20970 -10.20809 -10.20786  -1.05244  -1.04641
 Alpha  occ. eigenvalues --   -0.92330  -0.87000  -0.85929  -0.81490  -0.81025
 Alpha  occ. eigenvalues --   -0.76058  -0.73649  -0.70470  -0.67009  -0.62900
 Alpha  occ. eigenvalues --   -0.62364  -0.59135  -0.57144  -0.56115  -0.55482
 Alpha  occ. eigenvalues --   -0.51716  -0.50916  -0.49916  -0.48895  -0.47160
 Alpha  occ. eigenvalues --   -0.46948  -0.45571  -0.43905  -0.43651  -0.42943
 Alpha  occ. eigenvalues --   -0.42041  -0.41692  -0.40213  -0.39655  -0.39215
 Alpha  occ. eigenvalues --   -0.38664  -0.35682  -0.33949  -0.33049  -0.31404
 Alpha  occ. eigenvalues --   -0.29129  -0.28563  -0.26971  -0.26456  -0.26187
 Alpha  occ. eigenvalues --   -0.24293  -0.23343
 Alpha virt. eigenvalues --   -0.11228  -0.06792  -0.05436  -0.03074  -0.02407
 Alpha virt. eigenvalues --    0.01030   0.05580   0.06449   0.09273   0.09550
 Alpha virt. eigenvalues --    0.10015   0.11501   0.12145   0.13103   0.13680

 Mulliken charges:
               1
     1  N   -0.459443
     2  C    0.182977
     3  C   -0.106268
     4  C   -0.098328
     5  C   -0.125994
     6  C   -0.177763
     7  C    0.199052
     8  C    0.091195
     9  C   -0.144917
    10  C    0.136178
    11  C    0.105538
    12  O   -0.267120
    13  C   -0.204578
    14  C   -0.094218
    15  C   -0.196063
    16  C    0.358319
    17  O   -0.323455
    18  C   -0.301701
    19  H    0.215665
    20  H    0.108022
    21  H    0.112814
    22  H    0.118588
    23  H    0.140196
    24  H    0.135711
    25  H    0.078236
    26  H    0.126461
    27  H    0.146331
    28  H    0.124541
    29  H    0.120023
 Sum of Mulliken charges =  -0.00000

 Dipole moment (field-independent basis, Debye):
    X=             -1.4161    Y=              0.3953    Z=              1.2408  Tot=              1.9238
 Quadrupole moment (field-independent basis, Debye-Ang):
   XX=            -97.1797   YY=           -113.4606   ZZ=           -103.9737
   XY=             20.9936   XZ=              1.3388   YZ=             -1.4387

 Normal termination of Gaussian 16 at Sat May 20 02:39:36 2023.

 ----------------------------------------------------------------------
 #N Geom=AllCheck Guess=TCheck SCRF=Check GenChk RB3LYP/6-31G(2df,p) Fr
 eq
 ----------------------------------------------------------------------

 Structure from the checkpoint file:  "Ndc1ccccc2c1dCCqCdOrdCCdCCqdOrCd2.chk"
 -------------------
 Title Card Required
 -------------------
 Charge =  0 Multiplicity = 1

                         Standard orientation:
 ---------------------------------------------------------------------
 Center     Atomic      Atomic             Coordinates (Angstroms)
 Number     Number       Type             X           Y           Z
 ---------------------------------------------------------------------
      1          7           0       -2.210722    0.056869   -2.125154
      2          6           0       -2.082943   -0.269789   -0.893628
      3          6           0       -3.261082   -0.681865   -0.061388
      4          6           0       -3.224687   -1.439187    1.062484
      5          6           0       -1.883014   -1.875210    1.401496
      6          6           0       -1.126583   -2.169509    0.320418
      7          6           0        0.078090   -1.349516    0.008066
      8          6           0       -0.633392   -0.040565   -0.335923
      9          6           0       -0.423014    1.302007   -0.235894
     10          6           0        0.675366    2.221635    0.083629
     11          6           0        0.291819    3.560047    0.592858
     12          8           0       -0.843434    3.931310    0.777142
     13          6           0        1.989234    1.988528   -0.146060
     14          6           0        2.304139    0.652561   -0.583958
     15          6           0        3.123321   -0.208153    0.020211
     16          6           0        2.744024   -1.640176   -0.027081
     17          8           0        3.552142   -2.544369    0.070705
     18          6           0        1.282495   -1.977269    0.018744
     19          1           0       -3.183524   -0.050887   -2.428223
     20          1           0       -4.210201   -0.290923   -0.427653
     21          1           0       -4.101870   -1.567651    1.690503
     22          1           0       -1.437018   -1.556083    2.342329
     23          1           0       -1.641692   -2.579381   -0.546778
     24          1           0       -1.315547    1.884640   -0.447720
     25          1           0        1.158596    4.228072    0.793697
     26          1           0        2.742803    2.728219    0.111891
     27          1           0        1.567070    0.235435   -1.262525
     28          1           0        3.902392    0.080397    0.719478
     29          1           0        1.201742   -3.046693    0.204447
 ---------------------------------------------------------------------

 SCF Done:  E(RB3LYP) =  -783.223271625     A.U. after    1 cycles
