 Gaussian 16, Revision A.03,
 Gaussian 16:  ES64L-G16RevA.03 25-Dec-2016

 -----------------------------
 # opt freq b3lyp/6-31g(2df,p)
 -----------------------------

 -------------------
 Title Card Required
 -------------------
 Symbolic Z-matrix:
 Charge =  0 Multiplicity = 1

 SCF Done:  E(RB3LYP) =  -1198.16405225     A.U. after   16 cycles
 SCF Done:  E(RB3LYP) =  -1198.19625241     A.U. after   13 cycles
 SCF Done:  E(RB3LYP) =  -1198.20926855     A.U. after   13 cycles
 SCF Done:  E(RB3LYP) =  -1198.21420895     A.U. after   13 cycles
 SCF Done:  E(RB3LYP) =  -1198.21727027     A.U. after   14 cycles
 SCF Done:  E(RB3LYP) =  -1198.21916545     A.U. after   13 cycles
 SCF Done:  E(RB3LYP) =  -1198.22116749     A.U. after   13 cycles
 SCF Done:  E(RB3LYP) =  -1198.22308443     A.U. after   13 cycles
 SCF Done:  E(RB3LYP) =  -1198.22456217     A.U. after   12 cycles
 SCF Done:  E(RB3LYP) =  -1198.22512861     A.U. after   12 cycles
 SCF Done:  E(RB3LYP) =  -1198.22518064     A.U. after   10 cycles
 SCF Done:  E(RB3LYP) =  -1198.22518804     A.U. after   10 cycles
 SCF Done:  E(RB3LYP) =  -1198.22519645     A.U. after    9 cycles
 SCF Done:  E(RB3LYP) =  -1198.22519745     A.U. after    8 cycles
 SCF Done:  E(RB3LYP) =  -1198.22519757     A.U. after    7 cycles
 Optimization completed.
    -- Stationary point found.
 Normal termination of Gaussian 16 at Wed May 17 01:47:43 2023.

 ----------------------------------------------------------------------
 #N Geom=AllCheck Guess=TCheck SCRF=Check GenChk RB3LYP/6-31G(2df,p) Fr
 eq
 ----------------------------------------------------------------------

 Structure from the checkpoint file:  "NdC1CdC2CdCCdCSCdC2S1.chk"
 -------------------
 Title Card Required
 -------------------
 Charge =  0 Multiplicity = 1

                         Standard orientation:
 ---------------------------------------------------------------------
 Center     Atomic      Atomic             Coordinates (Angstroms)
 Number     Number       Type             X           Y           Z
 ---------------------------------------------------------------------
      1          7           0       -4.141348    0.501550    0.114451
      2          6           0       -2.879515    0.367155    0.016237
      3          6           0       -1.822764    1.350794   -0.229069
      4          6           0       -0.577407    0.846535   -0.263077
      5          6           0        0.746845    1.406942   -0.526527
      6          6           0        1.590398    1.770495    0.446472
      7          6           0        2.996718    1.420797    0.287835
      8          6           0        3.299402    0.143165    0.003560
      9         16           0        2.365890   -1.361444   -0.107384
     10          6           0        0.601933   -1.394855    0.036259
     11          6           0       -0.491476   -0.596852   -0.034726
     12         16           0       -2.132900   -1.262403    0.151645
     13          1           0       -4.404351    1.483197    0.006578
     14          1           0       -2.069990    2.393424   -0.390947
     15          1           0        1.174947    1.116988   -1.484886
     16          1           0        1.222104    2.089630    1.420134
     17          1           0        3.807799    2.125296    0.452147
     18          1           0        4.336033   -0.166637   -0.121833
     19          1           0        0.410245   -2.456257    0.187695
 ---------------------------------------------------------------------

 SCF Done:  E(RB3LYP) =  -1198.22519757     A.U. after    1 cycles

 The electronic state is 1-A.
 Alpha  occ. eigenvalues --  -88.91781 -88.89217 -14.31341 -10.26052 -10.24028
 Alpha  occ. eigenvalues --  -10.23923 -10.23843 -10.22715 -10.20972 -10.20922
 Alpha  occ. eigenvalues --  -10.20805 -10.20426  -7.97818  -7.95518  -5.94315
 Alpha  occ. eigenvalues --   -5.93844  -5.93496  -5.91951  -5.91626  -5.91136
 Alpha  occ. eigenvalues --   -0.92061  -0.87635  -0.83977  -0.81184  -0.76423
 Alpha  occ. eigenvalues --   -0.75213  -0.69136  -0.66964  -0.58758  -0.57538
 Alpha  occ. eigenvalues --   -0.55847  -0.53305  -0.50165  -0.49090  -0.47523
 Alpha  occ. eigenvalues --   -0.44546  -0.43522  -0.41973  -0.40499  -0.39162
 Alpha  occ. eigenvalues --   -0.36638  -0.35642  -0.34296  -0.33194  -0.32029
 Alpha  occ. eigenvalues --   -0.29007  -0.26908  -0.26221  -0.25057  -0.20402
 Alpha virt. eigenvalues --   -0.07426  -0.03844   0.00720   0.01760   0.02620
 Alpha virt. eigenvalues --    0.03191   0.05960   0.07715   0.08294   0.10074
 Alpha virt. eigenvalues --    0.12206   0.13143   0.13897   0.14510   0.15184

 Mulliken charges:
               1
     1  N   -0.508072
     2  C    0.273368
     3  C   -0.329967
     4  C    0.292703
     5  C   -0.231765
     6  C   -0.089091
     7  C   -0.133566
     8  C   -0.071696
     9  S   -0.048134
    10  C   -0.226517
    11  C    0.158631
    12  S   -0.075565
    13  H    0.226390
    14  H    0.121757
    15  H    0.127492
    16  H    0.113107
    17  H    0.114287
    18  H    0.137383
    19  H    0.149254
 Sum of Mulliken charges =   0.00000

 Dipole moment (field-independent basis, Debye):
    X=              3.4030    Y=              2.4714    Z=             -0.1842  Tot=              4.2098
 Quadrupole moment (field-independent basis, Debye-Ang):
   XX=            -87.8496   YY=            -77.6059   ZZ=            -84.6741
   XY=             -4.2458   XZ=              1.8411   YZ=              0.5661

  Exact polarizability: 247.693 -14.606 137.989   1.372   2.552  71.876
 Approx polarizability: 452.438 -55.809 260.706   5.201   7.088 131.377

                      1                      2                      3
                      A                      A                      A
 Frequencies --     68.7393                98.2586               160.5295
 Red. masses --      7.8035                 5.5513                 3.6291
 Frc consts  --      0.0217                 0.0316                 0.0551
 IR Inten    --      0.0142                 0.5271                 1.4818

                      4                      5                      6
                      A                      A                      A
 Frequencies --    192.4950               220.9692               251.4814
 Red. masses --      5.6694                 4.5427                 3.9188
 Frc consts  --      0.1238                 0.1307                 0.1460
 IR Inten    --      0.8039                 2.9983                 1.8098

                      7                      8                      9
                      A                      A                      A
 Frequencies --    285.5634               336.9759               349.6230
 Red. masses --      5.9961                 7.8578                 3.6521
 Frc consts  --      0.2881                 0.5257                 0.2630
 IR Inten    --      0.5970                 3.7325                 3.2369

                     10                     11                     12
                      A                      A                      A
 Frequencies --    395.6842               409.0257               466.4758
 Red. masses --      4.8207                 4.6799                 4.4134
 Frc consts  --      0.4447                 0.4613                 0.5658
 IR Inten    --      3.4251                 2.9969                 4.0628

                     13                     14                     15
                      A                      A                      A
 Frequencies --    530.4500               582.1761               608.2823
 Red. masses --      9.2838                 4.3722                 5.5429
 Frc consts  --      1.5391                 0.8731                 1.2084
 IR Inten    --      4.3623                 4.5160                 7.2753

                     16                     17                     18
                      A                      A                      A
 Frequencies --    635.4334               643.7738               686.9397
 Red. masses --      4.4503                 4.2686                 3.1742
 Frc consts  --      1.0587                 1.0423                 0.8825
 IR Inten    --     15.1774                31.8166                17.9242

                     19                     20                     21
                      A                      A                      A
 Frequencies --    719.8762               723.7821               776.2532
 Red. masses --      2.7665                 3.9380                 1.9384
 Frc consts  --      0.8447                 1.2155                 0.6882
 IR Inten    --     17.4792                17.2638                27.9897

                     22                     23                     24
                      A                      A                      A
 Frequencies --    798.7659               813.6429               837.3680
 Red. masses --      1.4622                 4.7656                 1.2853
 Frc consts  --      0.5496                 1.8588                 0.5310
 IR Inten    --      5.4777                38.6000                27.1379

                     25                     26                     27
                      A                      A                      A
 Frequencies --    874.0272               893.0492               938.8031
 Red. masses --      2.8467                 1.5483                 1.2961
 Frc consts  --      1.2813                 0.7275                 0.6731
 IR Inten    --      3.2273                43.2775                 7.7114

                     28                     29                     30
                      A                      A                      A
 Frequencies --    983.8387               985.5712              1046.0389
 Red. masses --      3.8442                 1.1776                 2.1802
 Frc consts  --      2.1923                 0.6740                 1.4056
 IR Inten    --      7.1830                20.1705                61.7058

                     31                     32                     33
                      A                      A                      A
 Frequencies --   1061.7514              1175.5516              1194.7610
 Red. masses --      2.0720                 2.5024                 1.0947
 Frc consts  --      1.3762                 2.0375                 0.9207
 IR Inten    --      0.5513                31.4593                 1.3551

                     34                     35                     36
                      A                      A                      A
 Frequencies --   1265.7984              1274.8041              1295.5552
 Red. masses --      1.4178                 1.5562                 1.7301
 Frc consts  --      1.3385                 1.4901                 1.7109
 IR Inten    --      7.8369                96.5928                30.5771

                     37                     38                     39
                      A                      A                      A
 Frequencies --   1331.6998              1357.1359              1392.3077
 Red. masses --      1.2711                 1.5283                 1.4715
 Frc consts  --      1.3281                 1.6584                 1.6807
 IR Inten    --      3.3085                 5.9523                12.6016

                     40                     41                     42
                      A                      A                      A
 Frequencies --   1579.3129              1618.7984              1649.3721
 Red. masses --      8.7109                 7.2138                 6.8065
 Frc consts  --     12.8012                11.1379                10.9097
 IR Inten    --     35.0142                26.4251                 4.6688

                     43                     44                     45
                      A                      A                      A
 Frequencies --   1672.5492              1706.6520              3132.5214
 Red. masses --      8.9354                 8.4788                 1.0883
 Frc consts  --     14.7273                14.5504                 6.2922
 IR Inten    --    282.1454                26.7483                 2.2714

                     46                     47                     48
                      A                      A                      A
 Frequencies --   3136.1992              3138.8231              3141.1406
 Red. masses --      1.0863                 1.0847                 1.0849
 Frc consts  --      6.2951                 6.2963                 6.3067
 IR Inten    --      1.8441                 6.5366                 2.2588

                     49                     50                     51
                      A                      A                      A
 Frequencies --   3165.5256              3203.7587              3453.9217
 Red. masses --      1.0946                 1.0940                 1.0743
 Frc consts  --      6.4622                 6.6157                 7.5508
 IR Inten    --     12.5288                 1.6099                 4.1955

 - Thermochemistry -
 -------------------
 Temperature   298.150 Kelvin.  Pressure   1.00000 Atm.
 Atom     1 has atomic number  7 and mass  14.00307

 Molecular mass:   193.00199 amu.
 Principal axes and moments of inertia in atomic units:
                           1         2         3
     Eigenvalues --  1062.598273803.838564765.35796
           X            1.00000  -0.00145   0.00194
           Y            0.00144   0.99999   0.00332
           Z           -0.00194  -0.00332   0.99999
 This molecule is an asymmetric top.
 Rotational symmetry number  1.
 Warning -- assumption of classical behavior for rotation
           may cause significant error
 Rotational temperatures (Kelvin)      0.08151     0.02277     0.01818
 Rotational constants (GHZ):           1.69842     0.47445     0.37872
 Zero-point vibrational energy     354464.5 (Joules/Mol)
                                   84.71904 (Kcal/Mol)
 Warning -- explicit consideration of  15 degrees of freedom as
           vibrations may cause significant error
 Vibrational temperatures:     98.90   141.37   230.97   276.96   317.93
          (Kelvin)            361.83   410.86   484.83   503.03   569.30
                              588.50   671.15   763.20   837.62   875.18
                              914.25   926.25   988.35  1035.74  1041.36
                             1116.86  1149.25  1170.65  1204.79  1257.53
                             1284.90  1350.73  1415.52  1418.02  1505.02
                             1527.62  1691.36  1718.99  1821.20  1834.16
                             1864.01  1916.02  1952.62  2003.22  2272.28
                             2329.09  2373.08  2406.43  2455.49  4507.00
                             4512.29  4516.07  4519.40  4554.49  4609.49
                             4969.42

 Zero-point correction=                           0.135008 (Hartree/Particle)
 Thermal correction to Energy=                    0.145479
 Thermal correction to Enthalpy=                  0.146423
 Thermal correction to Gibbs Free Energy=         0.098591
 Sum of electronic and zero-point Energies=          -1198.090189
 Sum of electronic and thermal Energies=             -1198.079719
 Sum of electronic and thermal Enthalpies=           -1198.078775
 Sum of electronic and thermal Free Energies=        -1198.126607

                     E (Thermal)             CV                S
                      KCal/Mol        Cal/Mol-Kelvin    Cal/Mol-Kelvin
 Total                   91.289             40.908            100.671
 Electronic               0.000              0.000              0.000
 Translational            0.889              2.981             41.678
 Rotational               0.889              2.981             31.333
 Vibrational             89.512             34.946             27.660
 Vibration     1          0.598              1.969              4.189
 Vibration     2          0.604              1.950              3.489
 Vibration     3          0.622              1.891              2.544
 Vibration     4          0.634              1.850              2.204
 Vibration     5          0.648              1.809              1.951
 Vibration     6          0.663              1.760              1.720
 Vibration     7          0.683              1.700              1.500
 Vibration     8          0.718              1.602              1.226
 Vibration     9          0.727              1.576              1.168
 Vibration    10          0.762              1.479              0.979
 Vibration    11          0.773              1.451              0.930
 Vibration    12          0.824              1.324              0.747
 Vibration    13          0.885              1.183              0.586
 Vibration    14          0.939              1.070              0.481
 Vibration    15          0.967              1.014              0.436

 Optimization completed.
    -- Stationary point found.
 Normal termination of Gaussian 16 at Wed May 17 02:34:25 2023.
