 Gaussian 16, Revision A.03,
 Gaussian 16:  ES64L-G16RevA.03 25-Dec-2016

 -----------------------------
 # opt freq b3lyp/6-31g(2df,p)
 -----------------------------

 -------------------
 Title Card Required
 -------------------
 Symbolic Z-matrix:
 Charge =  0 Multiplicity = 1

 SCF Done:  E(RB3LYP) =  -833.589908526     A.U. after   17 cycles
 SCF Done:  E(RB3LYP) =  -833.660398941     A.U. after   15 cycles
 SCF Done:  E(RB3LYP) =  -833.731628128     A.U. after   15 cycles
 SCF Done:  E(RB3LYP) =  -833.784292198     A.U. after   15 cycles
 SCF Done:  E(RB3LYP) =  -833.835287276     A.U. after   15 cycles
 SCF Done:  E(RB3LYP) =  -833.854823512     A.U. after   15 cycles
 SCF Done:  E(RB3LYP) =  -833.860195401     A.U. after   14 cycles
 SCF Done:  E(RB3LYP) =  -833.859079467     A.U. after   14 cycles
 SCF Done:  E(RB3LYP) =  -833.864399357     A.U. after   14 cycles
 SCF Done:  E(RB3LYP) =  -833.868310670     A.U. after   13 cycles
 SCF Done:  E(RB3LYP) =  -833.893673620     A.U. after   13 cycles
 SCF Done:  E(RB3LYP) =  -833.893825515     A.U. after   13 cycles
 SCF Done:  E(RB3LYP) =  -833.893866967     A.U. after   12 cycles
 SCF Done:  E(RB3LYP) =  -833.893887145     A.U. after   11 cycles
 SCF Done:  E(RB3LYP) =  -833.893890306     A.U. after   11 cycles
 SCF Done:  E(RB3LYP) =  -833.893892213     A.U. after    9 cycles
 SCF Done:  E(RB3LYP) =  -833.893892711     A.U. after    8 cycles
 SCF Done:  E(RB3LYP) =  -833.893892914     A.U. after    8 cycles
 SCF Done:  E(RB3LYP) =  -833.893892996     A.U. after    7 cycles
 Optimization completed.
    -- Stationary point found.
 Normal termination of Gaussian 16 at Wed May 17 20:39:47 2023.

 ----------------------------------------------------------------------
 #N Geom=AllCheck Guess=TCheck SCRF=Check GenChk RB3LYP/6-31G(2df,p) Fr
 eq
 ----------------------------------------------------------------------

 Structure from the checkpoint file:  "NdC1CqdOrN2CdCNdCCdC2CdCC1NCCdO.chk"
 -------------------
 Title Card Required
 -------------------
 Charge =  0 Multiplicity = 1

                         Standard orientation:
 ---------------------------------------------------------------------
 Center     Atomic      Atomic             Coordinates (Angstroms)
 Number     Number       Type             X           Y           Z
 ---------------------------------------------------------------------
      1          7           0       -1.129263    0.679344    1.674289
      2          6           0       -0.663789    0.507600    0.507741
      3          6           0        0.569509    1.195179   -0.027677
      4          8           0        0.549542    2.388943   -0.268413
      5          7           0        1.677186    0.417320   -0.264599
      6          6           0        2.758991    1.033300   -0.963521
      7          6           0        4.043269    0.918018   -0.604316
      8          7           0        4.574483    0.256461    0.492912
      9          6           0        4.039123   -0.819068    0.950712
     10          6           0        2.873109   -1.537085    0.460271
     11          6           0        1.757658   -1.003019   -0.090037
     12          6           0        0.681005   -1.890922   -0.531390
     13          6           0       -0.618734   -1.645638   -0.740875
     14          6           0       -1.408489   -0.380455   -0.488107
     15          7           0       -2.757713   -0.739559   -0.072746
     16          6           0       -3.748286    0.324686   -0.202057
     17          6           0       -5.153562   -0.247760   -0.100603
     18          8           0       -6.114699    0.375554    0.264235
     19          1           0       -0.531929    1.297414    2.228660
     20          1           0        2.459041    1.661208   -1.794408
     21          1           0        4.780565    1.445273   -1.203137
     22          1           0        4.559835   -1.292363    1.786358
     23          1           0        2.892197   -2.615635    0.590241
     24          1           0        1.013426   -2.914768   -0.679877
     25          1           0       -1.247052   -2.465710   -1.076507
     26          1           0       -1.493561    0.176511   -1.433998
     27          1           0       -2.712132   -1.023890    0.902838
     28          1           0       -3.666212    0.753630   -1.212037
     29          1           0       -3.643120    1.152298    0.511605
     30          1           0       -5.221463   -1.313923   -0.416169
 ---------------------------------------------------------------------

 SCF Done:  E(RB3LYP) =  -833.893892996     A.U. after    1 cycles

 The electronic state is 1-A.
 Alpha  occ. eigenvalues --  -19.14131 -19.13200 -14.39639 -14.34413 -14.34250
 Alpha  occ. eigenvalues --  -14.33843 -10.30262 -10.27170 -10.27129 -10.25717
 Alpha  occ. eigenvalues --  -10.24989 -10.24820 -10.23564 -10.22527 -10.22231
 Alpha  occ. eigenvalues --  -10.22188 -10.22119 -10.21775  -1.06448  -1.04862
 Alpha  occ. eigenvalues --   -0.98142  -0.95095  -0.93733  -0.91085  -0.84210
 Alpha  occ. eigenvalues --   -0.80418  -0.77168  -0.74386  -0.70046  -0.69745
 Alpha  occ. eigenvalues --   -0.65666  -0.62318  -0.59965  -0.58397  -0.57228
 Alpha  occ. eigenvalues --   -0.55689  -0.53656  -0.51732  -0.50014  -0.49316
 Alpha  occ. eigenvalues --   -0.47793  -0.47073  -0.45884  -0.45354  -0.44712
 Alpha  occ. eigenvalues --   -0.44345  -0.43519  -0.42306  -0.41898  -0.41011
 Alpha  occ. eigenvalues --   -0.39834  -0.38304  -0.37424  -0.36373  -0.35150
 Alpha  occ. eigenvalues --   -0.33719  -0.31427  -0.31134  -0.28001  -0.27064
 Alpha  occ. eigenvalues --   -0.26300  -0.25560  -0.24436  -0.22883
 Alpha virt. eigenvalues --   -0.09083  -0.04002  -0.02728  -0.01984   0.00688
 Alpha virt. eigenvalues --    0.03671   0.06711   0.08378   0.08492   0.10860
 Alpha virt. eigenvalues --    0.11465   0.11643   0.12558   0.13534   0.14440

 Mulliken charges:
               1
     1  N   -0.480114
     2  C    0.203618
     3  C    0.331126
     4  O   -0.358258
     5  N   -0.221539
     6  C   -0.073587
     7  C   -0.004812
     8  N   -0.247101
     9  C   -0.006804
    10  C   -0.172371
    11  C    0.264045
    12  C   -0.093559
    13  C   -0.084446
    14  C   -0.118508
    15  N   -0.312221
    16  C   -0.233166
    17  C    0.150403
    18  O   -0.235639
    19  H    0.242313
    20  H    0.138893
    21  H    0.123687
    22  H    0.119236
    23  H    0.115837
    24  H    0.115487
    25  H    0.123778
    26  H    0.120167
    27  H    0.238688
    28  H    0.133596
    29  H    0.138928
    30  H    0.082322
 Sum of Mulliken charges =  -0.00000

 Dipole moment (field-independent basis, Debye):
    X=              2.8558    Y=             -3.9930    Z=             -1.4246  Tot=              5.1117
 Quadrupole moment (field-independent basis, Debye-Ang):
   XX=           -131.3406   YY=           -103.1714   ZZ=            -98.4325
   XY=             -1.0083   XZ=              3.1034   YZ=             -1.9408

  Exact polarizability: 242.679  -1.345 143.121   9.232  -6.026 111.456
 Approx polarizability: 359.332  -9.128 243.611  28.042 -17.905 198.535

                      1                      2                      3
                      A                      A                      A
 Frequencies --     23.7008                43.6743                63.7597
 Red. masses --      7.6463                 6.9810                 5.6581
 Frc consts  --      0.0025                 0.0078                 0.0136
 IR Inten    --      0.4536                 0.8614                 5.3428

                      4                      5                      6
                      A                      A                      A
 Frequencies --     65.7434                84.5263                93.4533
 Red. masses --      2.3571                 5.9868                 3.9107
 Frc consts  --      0.0060                 0.0252                 0.0201
 IR Inten    --      1.0192                 0.5603                 0.5687

                      7                      8                      9
                      A                      A                      A
 Frequencies --    109.5994               162.9343               189.4333
 Red. masses --      3.8664                 4.2214                 5.4368
 Frc consts  --      0.0274                 0.0660                 0.1149
 IR Inten    --      4.1853                 0.9197                 2.2535

                     10                     11                     12
                      A                      A                      A
 Frequencies --    223.0406               263.1324               276.0588
 Red. masses --      5.1727                 4.8007                 4.3581
 Frc consts  --      0.1516                 0.1958                 0.1957
 IR Inten    --      3.4823                 8.7870                 0.8527

                     13                     14                     15
                      A                      A                      A
 Frequencies --    279.1568               320.0958               351.7302
 Red. masses --      4.1962                 4.5292                 5.6035
 Frc consts  --      0.1927                 0.2734                 0.4084
 IR Inten    --     11.9000                 4.6270                13.3604

                     16                     17                     18
                      A                      A                      A
 Frequencies --    361.7448               399.4149               420.8483
 Red. masses --      3.4653                 6.3480                 5.4959
 Frc consts  --      0.2672                 0.5967                 0.5735
 IR Inten    --      8.6345                 7.8477                 2.6511

                     19                     20                     21
                      A                      A                      A
 Frequencies --    441.2857               455.7048               537.9056
 Red. masses --      5.1152                 3.9665                 3.5561
 Frc consts  --      0.5869                 0.4853                 0.6062
 IR Inten    --      0.9646                 8.2762                16.7358

                     22                     23                     24
                      A                      A                      A
 Frequencies --    566.3098               605.7849               623.3767
 Red. masses --      4.9800                 3.5889                 3.5171
 Frc consts  --      0.9410                 0.7760                 0.8053
 IR Inten    --      2.9402                 6.5979                 2.8726

                     25                     26                     27
                      A                      A                      A
 Frequencies --    651.9593               698.7901               722.2457
 Red. masses --      4.4517                 3.3807                 1.5362
 Frc consts  --      1.1149                 0.9726                 0.4721
 IR Inten    --     13.3826                35.6649                18.6988

                     28                     29                     30
                      A                      A                      A
 Frequencies --    743.8604               761.1480               779.3122
 Red. masses --      3.5995                 2.6383                 1.8807
 Frc consts  --      1.1735                 0.9005                 0.6730
 IR Inten    --     13.7098                10.4382                 9.6961

                     31                     32                     33
                      A                      A                      A
 Frequencies --    790.1053               815.9501               868.4754
 Red. masses --      2.0631                 1.7851                 2.2315
 Frc consts  --      0.7588                 0.7002                 0.9917
 IR Inten    --      7.1274                49.3786                27.4288

                     34                     35                     36
                      A                      A                      A
 Frequencies --    874.7424               893.3579               908.4774
 Red. masses --      2.8248                 3.0873                 2.4104
 Frc consts  --      1.2735                 1.4517                 1.1721
 IR Inten    --     31.3827                15.1814                50.7963

                     37                     38                     39
                      A                      A                      A
 Frequencies --    938.4277               955.8022               972.8577
 Red. masses --      1.5492                 1.4711                 1.5730
 Frc consts  --      0.8038                 0.7918                 0.8772
 IR Inten    --      6.1502                12.3984                16.3350

                     40                     41                     42
                      A                      A                      A
 Frequencies --    997.9622              1001.5475              1014.3744
 Red. masses --      2.1623                 1.9422                 2.2683
 Frc consts  --      1.2688                 1.1478                 1.3751
 IR Inten    --      6.6398                 1.8948                13.5667

                     43                     44                     45
                      A                      A                      A
 Frequencies --   1031.7115              1051.1892              1061.5530
 Red. masses --      2.3284                 2.7810                 3.3275
 Frc consts  --      1.4602                 1.8106                 2.2093
 IR Inten    --      4.1094                 2.4964                42.6122

                     46                     47                     48
                      A                      A                      A
 Frequencies --   1073.9927              1133.0311              1140.0769
 Red. masses --      2.8864                 2.4871                 2.5893
 Frc consts  --      1.9616                 1.8812                 1.9829
 IR Inten    --     12.6508                54.9259                 4.5011

                     49                     50                     51
                      A                      A                      A
 Frequencies --   1166.6410              1220.8024              1239.4877
 Red. masses --      3.1248                 1.4617                 1.4450
 Frc consts  --      2.5058                 1.2835                 1.3080
 IR Inten    --     72.2641                11.8125                17.2531

                     52                     53                     54
                      A                      A                      A
 Frequencies --   1245.0526              1275.6289              1291.9975
 Red. masses --      1.4635                 1.3285                 1.4016
 Frc consts  --      1.3366                 1.2737                 1.3785
 IR Inten    --      4.6600                31.3393                45.5796

                     55                     56                     57
                      A                      A                      A
 Frequencies --   1304.3735              1328.3060              1356.9804
 Red. masses --      1.3353                 1.8344                 1.6457
 Frc consts  --      1.3385                 1.9070                 1.7855
 IR Inten    --     86.1145                60.1440                44.4836

                     58                     59                     60
                      A                      A                      A
 Frequencies --   1369.2295              1386.0258              1404.4208
 Red. masses --      1.9205                 2.2522                 1.2417
 Frc consts  --      2.1214                 2.5492                 1.4430
 IR Inten    --     30.0662                89.3278                 2.3759

                     61                     62                     63
                      A                      A                      A
 Frequencies --   1414.9044              1423.7431              1438.7398
 Red. masses --      1.5371                 1.4860                 1.3994
 Frc consts  --      1.8130                 1.7748                 1.7067
 IR Inten    --     22.1292                 1.5252                14.7175

                     64                     65                     66
                      A                      A                      A
 Frequencies --   1465.5855              1519.9988              1622.3418
 Red. masses --      1.0837                 1.1837                 8.9809
 Frc consts  --      1.3715                 1.6113                13.9268
 IR Inten    --      9.6565                27.5030               110.6641

                     67                     68                     69
                      A                      A                      A
 Frequencies --   1652.3829              1677.9385              1701.0118
 Red. masses --      7.1031                 6.4942                 7.3282
 Frc consts  --     11.4267                10.7727                12.4928
 IR Inten    --     31.9377                 4.3752                34.8883

                     70                     71                     72
                      A                      A                      A
 Frequencies --   1730.7854              1746.3586              1841.1608
 Red. masses --     10.1730                12.3014                10.5318
 Frc consts  --     17.9551                22.1041                21.0346
 IR Inten    --     41.3654               228.4050               202.9687

                     73                     74                     75
                      A                      A                      A
 Frequencies --   2879.2275              2991.1898              3004.1020
 Red. masses --      1.0835                 1.0803                 1.0583
 Frc consts  --      5.2923                 5.6949                 5.6271
 IR Inten    --     95.6164                 5.5487                23.6424

                     76                     77                     78
                      A                      A                      A
 Frequencies --   3049.3257              3098.4894              3156.0348
 Red. masses --      1.1015                 1.0864                 1.0850
 Frc consts  --      6.0346                 6.1453                 6.3672
 IR Inten    --     13.9036                35.7519                 0.2347

                     79                     80                     81
                      A                      A                      A
 Frequencies --   3167.5540              3169.2111              3180.2195
 Red. masses --      1.0878                 1.0862                 1.0928
 Frc consts  --      6.4306                 6.4277                 6.5121
 IR Inten    --     10.7299                 4.6026                 7.5203

                     82                     83                     84
                      A                      A                      A
 Frequencies --   3202.5501              3448.7666              3501.3604
 Red. masses --      1.0947                 1.0753                 1.0725
 Frc consts  --      6.6150                 7.5353                 7.7470
 IR Inten    --      9.3009                 1.2025                 7.5514

 - Thermochemistry -
 -------------------
 Temperature   298.150 Kelvin.  Pressure   1.00000 Atm.
 Atom     1 has atomic number  7 and mass  14.00307

 Molecular mass:   244.09603 amu.
 Principal axes and moments of inertia in atomic units:
                           1         2         3
     Eigenvalues --  1526.709388735.437639467.77893
           X            1.00000  -0.00027   0.00161
           Y            0.00028   0.99995  -0.00953
           Z           -0.00161   0.00953   0.99995
 This molecule is an asymmetric top.
 Rotational symmetry number  1.
 Warning -- assumption of classical behavior for rotation
           may cause significant error
 Rotational temperatures (Kelvin)      0.05673     0.00992     0.00915
 Rotational constants (GHZ):           1.18211     0.20660     0.19062
 Zero-point vibrational energy     607196.3 (Joules/Mol)
                                  145.12340 (Kcal/Mol)
 Warning -- explicit consideration of  23 degrees of freedom as
           vibrations may cause significant error
 Vibrational temperatures:     34.10    62.84    91.74    94.59   121.61
          (Kelvin)            134.46   157.69   234.43   272.55   320.91
                              378.59   397.19   401.64   460.55   506.06
                              520.47   574.67   605.51   634.91   655.66
                              773.93   814.79   871.59   896.90   938.02
                             1005.40  1039.15  1070.25  1095.12  1121.26
                             1136.79  1173.97  1249.54  1258.56  1285.34
                             1307.10  1350.19  1375.19  1399.73  1435.84
                             1441.00  1459.46  1484.40  1512.43  1527.34
                             1545.24  1630.18  1640.32  1678.54  1756.46
                             1783.35  1791.35  1835.35  1858.90  1876.70
                             1911.14  1952.39  1970.02  1994.18  2020.65
                             2035.73  2048.45  2070.03  2108.65  2186.94
                             2334.19  2377.41  2414.18  2447.38  2490.21
                             2512.62  2649.02  4142.57  4303.65  4322.23
                             4387.30  4458.04  4540.83  4557.40  4559.79
                             4575.63  4607.76  4962.01  5037.68

 Zero-point correction=                           0.231269 (Hartree/Particle)
 Thermal correction to Energy=                    0.247275
 Thermal correction to Enthalpy=                  0.248220
 Thermal correction to Gibbs Free Energy=         0.186089
 Sum of electronic and zero-point Energies=           -833.662624
 Sum of electronic and thermal Energies=              -833.646618
 Sum of electronic and thermal Enthalpies=            -833.645673
 Sum of electronic and thermal Free Energies=         -833.707804

                     E (Thermal)             CV                S
                      KCal/Mol        Cal/Mol-Kelvin    Cal/Mol-Kelvin
 Total                  155.168             59.874            130.764
 Electronic               0.000              0.000              0.000
 Translational            0.889              2.981             42.378
 Rotational               0.889              2.981             33.201
 Vibrational            153.390             53.912             55.185
 Vibration     1          0.593              1.985              6.297
 Vibration     2          0.595              1.980              5.085
 Vibration     3          0.597              1.972              4.337
 Vibration     4          0.597              1.971              4.277
 Vibration     5          0.601              1.960              3.783
 Vibration     6          0.602              1.954              3.586
 Vibration     7          0.606              1.942              3.276
 Vibration     8          0.623              1.888              2.515
 Vibration     9          0.633              1.854              2.233
 Vibration    10          0.649              1.806              1.934
 Vibration    11          0.670              1.740              1.641
 Vibration    12          0.678              1.718              1.558
 Vibration    13          0.679              1.712              1.539
 Vibration    14          0.706              1.635              1.310
 Vibration    15          0.728              1.572              1.158
 Vibration    16          0.736              1.551              1.115
 Vibration    17          0.765              1.471              0.965
 Vibration    18          0.783              1.425              0.889
 Vibration    19          0.801              1.380              0.823
 Vibration    20          0.814              1.348              0.779
 Vibration    21          0.893              1.166              0.570
 Vibration    22          0.922              1.104              0.511
 Vibration    23          0.964              1.020              0.440

                           ! Non-Optimized Parameters !
 Normal termination of Gaussian 16 at Wed May 17 23:48:25 2023.
