 Gaussian 16, Revision A.03,
 Gaussian 16:  ES64L-G16RevA.03 25-Dec-2016

 -----------------------------
 # opt freq b3lyp/6-31g(2df,p)
 -----------------------------

 -------------------
 Title Card Required
 -------------------
 Symbolic Z-matrix:
 Charge =  0 Multiplicity = 2

 SCF Done:  E(UB3LYP) =  -625.966899491     A.U. after   38 cycles
 SCF Done:  E(UB3LYP) =  -626.010018860     A.U. after   24 cycles
 SCF Done:  E(UB3LYP) =  -626.040242142     A.U. after   28 cycles
 SCF Done:  E(UB3LYP) =  -626.045957424     A.U. after   25 cycles
 SCF Done:  E(UB3LYP) =  -626.053471044     A.U. after   26 cycles
 SCF Done:  E(UB3LYP) =  -626.056778634     A.U. after   21 cycles
 SCF Done:  E(UB3LYP) =  -626.059970887     A.U. after   23 cycles
 SCF Done:  E(UB3LYP) =  -626.060329113     A.U. after   19 cycles
 SCF Done:  E(UB3LYP) =  -626.060512295     A.U. after   19 cycles
 SCF Done:  E(UB3LYP) =  -626.060593125     A.U. after   19 cycles
 SCF Done:  E(UB3LYP) =  -626.060633552     A.U. after   19 cycles
 SCF Done:  E(UB3LYP) =  -626.060649356     A.U. after   17 cycles
 SCF Done:  E(UB3LYP) =  -626.060654511     A.U. after   15 cycles
 SCF Done:  E(UB3LYP) =  -626.060656695     A.U. after   15 cycles
 SCF Done:  E(UB3LYP) =  -626.060657812     A.U. after   14 cycles
 SCF Done:  E(UB3LYP) =  -626.060658097     A.U. after   10 cycles
 Optimization completed.
    -- Stationary point found.

 The electronic state is 2-A.
 Alpha  occ. eigenvalues --  -14.40690 -14.33110 -14.32181 -10.26138 -10.25705
 Alpha  occ. eigenvalues --  -10.24819 -10.24009 -10.23726 -10.23481 -10.22605
 Alpha  occ. eigenvalues --  -10.21754 -10.21751 -10.20956 -10.20548 -10.17765
 Alpha  occ. eigenvalues --   -0.98962  -0.94306  -0.91776  -0.91169  -0.82582
 Alpha  occ. eigenvalues --   -0.77804  -0.76632  -0.71066  -0.68869  -0.66051
 Alpha  occ. eigenvalues --   -0.61510  -0.59608  -0.57342  -0.56581  -0.53643
 Alpha  occ. eigenvalues --   -0.50385  -0.49274  -0.48047  -0.47421  -0.46650
 Alpha  occ. eigenvalues --   -0.43918  -0.43070  -0.41239  -0.40870  -0.39328
 Alpha  occ. eigenvalues --   -0.37169  -0.35367  -0.34580  -0.33929  -0.29791
 Alpha  occ. eigenvalues --   -0.28773  -0.28064  -0.24852  -0.23307  -0.21547
 Alpha  occ. eigenvalues --   -0.16748
 Alpha virt. eigenvalues --   -0.09371  -0.05292  -0.02394   0.02760   0.04561
 Alpha virt. eigenvalues --    0.06665   0.08091   0.08471   0.10468   0.11426
 Alpha virt. eigenvalues --    0.13043   0.13796   0.14761   0.15650   0.16648

  Beta  occ. eigenvalues --  -14.40076 -14.32870 -14.31756 -10.26202 -10.25792
  Beta  occ. eigenvalues --  -10.24681 -10.24045 -10.23533 -10.23237 -10.22707
  Beta  occ. eigenvalues --  -10.21949 -10.21795 -10.20971 -10.20483 -10.17232
  Beta  occ. eigenvalues --   -0.98065  -0.94068  -0.91146  -0.90821  -0.82358
  Beta  occ. eigenvalues --   -0.77319  -0.76301  -0.70927  -0.68034  -0.65878
  Beta  occ. eigenvalues --   -0.61284  -0.59544  -0.57014  -0.56246  -0.53426
  Beta  occ. eigenvalues --   -0.50213  -0.48791  -0.47783  -0.47296  -0.46425
  Beta  occ. eigenvalues --   -0.43454  -0.42663  -0.40867  -0.40488  -0.38998
  Beta  occ. eigenvalues --   -0.36414  -0.34485  -0.34176  -0.32856  -0.29362
  Beta  occ. eigenvalues --   -0.28250  -0.27192  -0.24266  -0.22604  -0.19627
  Beta virt. eigenvalues --   -0.10241  -0.08026  -0.04512  -0.01915   0.03195
  Beta virt. eigenvalues --    0.05350   0.07083   0.08387   0.09532   0.10575
  Beta virt. eigenvalues --    0.11517   0.13118   0.13894   0.15083   0.15665

 Mulliken charges and spin densities:
               1          2
     1  N   -0.499121   0.127249
     2  C    0.165945  -0.038177
     3  C   -0.192627   0.046938
     4  C   -0.166801  -0.008748
     5  C    0.239034  -0.044403
     6  C   -0.138247   0.353108
     7  C   -0.055878  -0.139309
     8  N   -0.271137   0.212409
     9  C   -0.009230  -0.023250
    10  C   -0.032096   0.176250
    11  N   -0.113126   0.237330
    12  C   -0.243441  -0.067277
    13  C    0.320298   0.125498
    14  C   -0.383919  -0.055763
    15  C    0.268008   0.088838
    16  H    0.231969  -0.003626
    17  H    0.126703  -0.003222
    18  H    0.118935  -0.000602
    19  H    0.112606   0.009091
    20  H    0.105718  -0.000134
    21  H    0.118384   0.003445
    22  H    0.123168   0.002833
    23  H    0.174856   0.001521
 Sum of Mulliken charges =  -0.00000   1.00000

 Dipole moment (field-independent basis, Debye):
    X=              2.3387    Y=              2.6220    Z=             -0.3090  Tot=              3.5270
 Quadrupole moment (field-independent basis, Debye-Ang):
   XX=           -100.3972   YY=            -75.1522   ZZ=            -83.2911
   XY=             -1.9349   XZ=             -2.8499   YZ=              0.9213

 Normal termination of Gaussian 16 at Mon May 15 22:22:57 2023.

 ----------------------------------------------------------------------
 #N Geom=AllCheck Guess=TCheck SCRF=Check GenChk UB3LYP/6-31G(2df,p) Fr
 eq
 ----------------------------------------------------------------------

 Structure from the checkpoint file:  "Ndc1ccc2[c]cnccn-2cc2cc1-2.chk"
 -------------------
 Title Card Required
 -------------------
 Charge =  0 Multiplicity = 2

                         Standard orientation:
 ---------------------------------------------------------------------
 Center     Atomic      Atomic             Coordinates (Angstroms)
 Number     Number       Type             X           Y           Z
 ---------------------------------------------------------------------
      1          7           0        4.089686   -1.219193    0.262297
      2          6           0        2.872694   -0.820925    0.180813
      3          6           0        1.586559   -1.560936    0.073668
      4          6           0        0.523449   -0.960583    0.646234
      5          6           0       -0.769343   -0.691547    0.050460
      6          6           0       -1.726443   -1.417941   -0.487872
      7          6           0       -3.050253   -1.255191   -0.764299
      8          7           0       -3.866317   -0.471617   -0.023133
      9          6           0       -3.351804    0.602478    0.596402
     10          6           0       -2.109214    1.231595    0.536790
     11          7           0       -0.934545    0.779212   -0.011720
     12          6           0        0.098599    1.697519   -0.322611
     13          6           0        1.426182    1.464769   -0.278077
     14          6           0        2.780950    1.836272   -0.489882
     15          6           0        2.565429    0.601941   -0.045013
     16          1           0        4.115325   -2.235662    0.375133
     17          1           0        1.482054   -2.293604   -0.721785
     18          1           0        0.757744   -0.242042    1.428720
     19          1           0       -3.543244   -1.846813   -1.533882
     20          1           0       -4.080948    1.163800    1.178813
     21          1           0       -2.045556    2.227142    0.966717
     22          1           0       -0.269857    2.677220   -0.601359
     23          1           0        3.481903    2.566434   -0.864142
 ---------------------------------------------------------------------

 SCF Done:  E(UB3LYP) =  -626.060658097     A.U. after    1 cycles
