 Gaussian 16, Revision A.03,
 Gaussian 16:  ES64L-G16RevA.03 25-Dec-2016

 -----------------------------
 # opt freq b3lyp/6-31g(2df,p)
 -----------------------------

 -------------------
 Title Card Required
 -------------------
 Symbolic Z-matrix:
 Charge =  0 Multiplicity = 1

 SCF Done:  E(RB3LYP) =  -737.192972587     A.U. after   25 cycles
 SCF Done:  E(RB3LYP) =  -737.264365092     A.U. after   16 cycles
 SCF Done:  E(RB3LYP) =  -737.334877495     A.U. after   16 cycles
 SCF Done:  E(RB3LYP) =  -737.379821868     A.U. after   15 cycles
 SCF Done:  E(RB3LYP) =  -737.420524425     A.U. after   16 cycles
 SCF Done:  E(RB3LYP) =  -737.441821453     A.U. after   15 cycles
 SCF Done:  E(RB3LYP) =  -737.455709435     A.U. after   15 cycles
 SCF Done:  E(RB3LYP) =  -737.470836541     A.U. after   15 cycles
 SCF Done:  E(RB3LYP) =  -737.479843005     A.U. after   14 cycles
 SCF Done:  E(RB3LYP) =  -737.494762435     A.U. after   15 cycles
 SCF Done:  E(RB3LYP) =  -737.531377280     A.U. after   12 cycles
 SCF Done:  E(RB3LYP) =  -737.531640872     A.U. after   11 cycles
 SCF Done:  E(RB3LYP) =  -737.531747521     A.U. after   12 cycles
 SCF Done:  E(RB3LYP) =  -737.531777269     A.U. after   12 cycles
 SCF Done:  E(RB3LYP) =  -737.531795971     A.U. after   11 cycles
 SCF Done:  E(RB3LYP) =  -737.531805444     A.U. after   11 cycles
 SCF Done:  E(RB3LYP) =  -737.531807323     A.U. after    8 cycles
 SCF Done:  E(RB3LYP) =  -737.531808139     A.U. after    8 cycles
 SCF Done:  E(RB3LYP) =  -737.531808344     A.U. after    7 cycles
 Optimization completed.
    -- Stationary point found.
 Normal termination of Gaussian 16 at Sat May 20 06:00:55 2023.

 ----------------------------------------------------------------------
 #N Geom=AllCheck Guess=TCheck SCRF=Check GenChk RB3LYP/6-31G(2df,p) Fr
 eq
 ----------------------------------------------------------------------

 Structure from the checkpoint file:  "NdC1CdC2CdNC3dNCdCCdCCdC3NC12N.chk"
 -------------------
 Title Card Required
 -------------------
 Charge =  0 Multiplicity = 1

                         Standard orientation:
 ---------------------------------------------------------------------
 Center     Atomic      Atomic             Coordinates (Angstroms)
 Number     Number       Type             X           Y           Z
 ---------------------------------------------------------------------
      1          7           0       -3.803474    1.713717   -0.395690
      2          6           0       -3.162377    0.672146   -0.073956
      3          6           0       -3.287833   -0.537959    0.774431
      4          6           0       -2.020500   -0.937547    0.501761
      5          6           0       -1.068586   -1.894730    1.018865
      6          7           0        0.192818   -1.854564    0.819078
      7          6           0        0.865374   -0.869984    0.055214
      8          7           0        1.766007   -1.307757   -0.721307
      9          6           0        2.602300   -0.474360   -1.462929
     10          6           0        3.563172    0.309253   -0.951303
     11          6           0        3.779127    0.585548    0.470514
     12          6           0        2.854857    1.014286    1.348805
     13          6           0        1.461431    1.335862    1.047054
     14          6           0        0.579528    0.589157    0.353497
     15          7           0       -0.669304    1.083183   -0.023796
     16          6           0       -1.723076    0.209944   -0.465571
     17          7           0       -1.461459   -0.215265   -1.826774
     18          1           0       -4.734234    1.728596    0.029376
     19          1           0       -4.057053   -0.898458    1.447255
     20          1           0       -1.442517   -2.692721    1.664682
     21          1           0        2.555221   -0.651392   -2.535346
     22          1           0        4.288638    0.727219   -1.646170
     23          1           0        4.806073    0.500091    0.823344
     24          1           0        3.191689    1.262442    2.354689
     25          1           0        1.119977    2.314322    1.392404
     26          1           0       -0.962755    1.943693    0.413922
     27          1           0       -1.373527    0.604854   -2.419883
     28          1           0       -2.224135   -0.783539   -2.183140
 ---------------------------------------------------------------------

 SCF Done:  E(RB3LYP) =  -737.531808344     A.U. after    1 cycles

 The electronic state is 1-A.
 Alpha  occ. eigenvalues --  -14.35157 -14.34915 -14.32871 -14.32660 -14.31835
 Alpha  occ. eigenvalues --  -10.27064 -10.26223 -10.25404 -10.25002 -10.23015
 Alpha  occ. eigenvalues --  -10.22815 -10.22647 -10.20120 -10.17808 -10.17543
 Alpha  occ. eigenvalues --  -10.17523 -10.16766  -0.98599  -0.95596  -0.91654
 Alpha  occ. eigenvalues --   -0.90594  -0.88154  -0.84676  -0.79753  -0.76738
 Alpha  occ. eigenvalues --   -0.71798  -0.69345  -0.66203  -0.65086  -0.59495
 Alpha  occ. eigenvalues --   -0.59313  -0.56768  -0.55110  -0.52305  -0.51815
 Alpha  occ. eigenvalues --   -0.49573  -0.49325  -0.47444  -0.46648  -0.46198
 Alpha  occ. eigenvalues --   -0.45017  -0.43871  -0.42224  -0.40866  -0.39236
 Alpha  occ. eigenvalues --   -0.38304  -0.37094  -0.36735  -0.34523  -0.33727
 Alpha  occ. eigenvalues --   -0.31800  -0.30592  -0.28974  -0.27307  -0.26972
 Alpha  occ. eigenvalues --   -0.25134  -0.24543  -0.21864  -0.18424
 Alpha virt. eigenvalues --   -0.09626  -0.02510   0.00805   0.02529   0.04192
 Alpha virt. eigenvalues --    0.05512   0.07332   0.09437   0.10232   0.10745
 Alpha virt. eigenvalues --    0.11892   0.12415   0.12725   0.14526   0.15232

 Mulliken charges:
               1
     1  N   -0.517523
     2  C    0.267928
     3  C   -0.361328
     4  C    0.371265
     5  C   -0.076932
     6  N   -0.220459
     7  C    0.261523
     8  N   -0.243479
     9  C   -0.039317
    10  C   -0.108004
    11  C   -0.109653
    12  C   -0.103016
    13  C   -0.215778
    14  C    0.278236
    15  N   -0.384218
    16  C    0.067846
    17  N   -0.519732
    18  H    0.227366
    19  H    0.131641
    20  H    0.125122
    21  H    0.101766
    22  H    0.088941
    23  H    0.091811
    24  H    0.085032
    25  H    0.074978
    26  H    0.251223
    27  H    0.243985
    28  H    0.230778
 Sum of Mulliken charges =  -0.00000

 Dipole moment (field-independent basis, Debye):
    X=             -4.1875    Y=              0.7360    Z=              1.0489  Tot=              4.3791
 Quadrupole moment (field-independent basis, Debye-Ang):
   XX=            -85.3239   YY=           -101.6877   ZZ=            -90.9241
   XY=             10.0409   XZ=             -4.7348   YZ=              1.6923

  Exact polarizability: 255.175  -0.645 131.553  -8.946   2.615 127.282
 Approx polarizability: 397.544 -15.921 240.497 -15.529  11.850 218.672

                      1                      2                      3
                      A                      A                      A
 Frequencies --     45.1113                78.3290               105.2794
 Red. masses --      4.9493                 5.3336                 5.4258
 Frc consts  --      0.0059                 0.0193                 0.0354
 IR Inten    --      1.3070                 1.3023                 2.2671

                      4                      5                      6
                      A                      A                      A
 Frequencies --    127.8116               160.6258               200.1015
 Red. masses --      5.2972                 4.4221                 4.8314
 Frc consts  --      0.0510                 0.0672                 0.1140
 IR Inten    --      1.4764                 2.6639                 1.1477

                      7                      8                      9
                      A                      A                      A
 Frequencies --    210.2670               230.7084               246.4507
 Red. masses --      3.4402                 3.1238                 4.0926
 Frc consts  --      0.0896                 0.0980                 0.1465
 IR Inten    --      0.8081                 2.4296                10.7981

                     10                     11                     12
                      A                      A                      A
 Frequencies --    273.7025               292.8992               296.5380
 Red. masses --      1.3229                 3.8561                 2.6582
 Frc consts  --      0.0584                 0.1949                 0.1377
 IR Inten    --     20.6160                 6.1183                 4.8625

                     13                     14                     15
                      A                      A                      A
 Frequencies --    331.9781               358.6244               383.4010
 Red. masses --      5.1993                 2.8066                 2.7383
 Frc consts  --      0.3376                 0.2127                 0.2372
 IR Inten    --      5.0203                14.5137                31.2867

                     16                     17                     18
                      A                      A                      A
 Frequencies --    418.2353               451.2004               480.4923
 Red. masses --      2.4112                 3.5011                 5.3712
 Frc consts  --      0.2485                 0.4199                 0.7306
 IR Inten    --     15.7726                24.2795                12.1613

                     19                     20                     21
                      A                      A                      A
 Frequencies --    520.3653               561.2971               576.9995
 Red. masses --      4.2084                 3.7149                 4.5415
 Frc consts  --      0.6714                 0.6896                 0.8908
 IR Inten    --      5.4134                 2.4990                 3.1279

                     22                     23                     24
                      A                      A                      A
 Frequencies --    630.1290               648.3334               653.7881
 Red. masses --      4.1555                 4.3157                 3.3627
 Frc consts  --      0.9721                 1.0688                 0.8469
 IR Inten    --      2.7737                 3.9775                 6.8466

                     25                     26                     27
                      A                      A                      A
 Frequencies --    687.4535               724.2121               730.2899
 Red. masses --      3.0029                 3.3881                 3.9228
 Frc consts  --      0.8361                 1.0470                 1.2326
 IR Inten    --     29.9533                 6.9017                 2.7704

                     28                     29                     30
                      A                      A                      A
 Frequencies --    756.9456               784.3750               799.9274
 Red. masses --      2.3640                 2.7941                 3.1525
 Frc consts  --      0.7980                 1.0129                 1.1885
 IR Inten    --     16.8787                14.0419                36.0504

                     31                     32                     33
                      A                      A                      A
 Frequencies --    813.0558               831.7544               842.3543
 Red. masses --      3.3896                 1.5994                 1.7797
 Frc consts  --      1.3202                 0.6519                 0.7440
 IR Inten    --     10.0698               103.5785                 8.8646

                     34                     35                     36
                      A                      A                      A
 Frequencies --    852.2154               896.3983               913.8417
 Red. masses --      1.2638                 3.7284                 1.4379
 Frc consts  --      0.5408                 1.7651                 0.7075
 IR Inten    --      4.6975                19.6248                59.5142

                     37                     38                     39
                      A                      A                      A
 Frequencies --    946.8586               956.5067               963.1432
 Red. masses --      2.8411                 1.4708                 2.3489
 Frc consts  --      1.5008                 0.7929                 1.2838
 IR Inten    --      1.9393                 6.7639                17.1458

                     40                     41                     42
                      A                      A                      A
 Frequencies --    970.3012               981.7705              1006.4568
 Red. masses --      1.7090                 1.4470                 2.4418
 Frc consts  --      0.9480                 0.8217                 1.4573
 IR Inten    --      8.1846                 3.4896                 4.9962

                     43                     44                     45
                      A                      A                      A
 Frequencies --   1054.2343              1080.3371              1095.0817
 Red. masses --      3.0829                 2.3459                 2.4298
 Frc consts  --      2.0188                 1.6132                 1.7168
 IR Inten    --     11.5254                29.7914                 1.7487

                     46                     47                     48
                      A                      A                      A
 Frequencies --   1122.7425              1172.9038              1207.9574
 Red. masses --      3.7548                 2.0015                 2.9514
 Frc consts  --      2.7887                 1.6223                 2.5374
 IR Inten    --     67.2248                19.2844                48.7682

                     49                     50                     51
                      A                      A                      A
 Frequencies --   1233.7656              1248.7564              1249.8557
 Red. masses --      1.1982                 2.2217                 1.1892
 Frc consts  --      1.0746                 2.0412                 1.0946
 IR Inten    --     25.4755               153.5937                 5.8500

                     52                     53                     54
                      A                      A                      A
 Frequencies --   1276.8135              1281.8832              1353.2611
 Red. masses --      1.7773                 2.2162                 2.4347
 Frc consts  --      1.7071                 2.1456                 2.6270
 IR Inten    --    104.2466                40.2122                 7.6677

                     55                     56                     57
                      A                      A                      A
 Frequencies --   1363.8686              1396.4329              1407.7469
 Red. masses --      2.4789                 1.3570                 1.3519
 Frc consts  --      2.7167                 1.5591                 1.5785
 IR Inten    --    164.8082                 1.8011                 2.6550

                     58                     59                     60
                      A                      A                      A
 Frequencies --   1448.0203              1478.8308              1620.1423
 Red. masses --      1.6030                 1.6401                 6.5035
 Frc consts  --      1.9803                 2.1133                10.0578
 IR Inten    --     20.3068                28.5311                29.3053

                     61                     62                     63
                      A                      A                      A
 Frequencies --   1638.1308              1666.5645              1668.3012
 Red. masses --      1.1455                 8.5211                 8.2556
 Frc consts  --      1.8111                13.9440                13.5378
 IR Inten    --     44.5148                26.0095                51.9509

                     64                     65                     66
                      A                      A                      A
 Frequencies --   1674.1232              1683.5150              1737.8311
 Red. masses --      7.6419                 6.4062                11.8439
 Frc consts  --     12.6190                10.6975                21.0746
 IR Inten    --     68.0464                32.6965               113.9975

                     67                     68                     69
                      A                      A                      A
 Frequencies --   1769.7249              3088.0423              3097.8841
 Red. masses --      9.8206                 1.0849                 1.0881
 Frc consts  --     18.1218                 6.0952                 6.1524
 IR Inten    --    153.4880                30.1475                32.9683

                     70                     71                     72
                      A                      A                      A
 Frequencies --   3117.5099              3134.3742              3141.4580
 Red. masses --      1.0815                 1.0844                 1.0900
 Frc consts  --      6.1926                 6.2770                 6.3377
 IR Inten    --      4.6837                15.0379                45.0965

                     73                     74                     75
                      A                      A                      A
 Frequencies --   3158.5236              3203.8348              3435.1511
 Red. masses --      1.0945                 1.0996                 1.0746
 Frc consts  --      6.4334                 6.6501                 7.4710
 IR Inten    --     43.4534                 5.2282                 0.1371

                     76                     77                     78
                      A                      A                      A
 Frequencies --   3492.0963              3582.8200              3609.9316
 Red. masses --      1.0484                 1.0938                 1.0759
 Frc consts  --      7.5328                 8.2722                 8.2610
 IR Inten    --      3.2326                 4.5222                16.7709

 - Thermochemistry -
 -------------------
 Temperature   298.150 Kelvin.  Pressure   1.00000 Atm.
 Atom     1 has atomic number  7 and mass  14.00307

 Molecular mass:   225.10145 amu.
 Principal axes and moments of inertia in atomic units:
                           1         2         3
     Eigenvalues --  1686.315885289.989085549.22466
           X            0.99996   0.00880  -0.00079
           Y           -0.00877   0.99944   0.03230
           Z            0.00107  -0.03229   0.99948
 This molecule is an asymmetric top.
 Rotational symmetry number  1.
 Warning -- assumption of classical behavior for rotation
           may cause significant error
 Rotational temperatures (Kelvin)      0.05136     0.01637     0.01561
 Rotational constants (GHZ):           1.07023     0.34116     0.32522
 Zero-point vibrational energy     566629.1 (Joules/Mol)
                                  135.42759 (Kcal/Mol)
 Warning -- explicit consideration of  21 degrees of freedom as
           vibrations may cause significant error
 Vibrational temperatures:     64.91   112.70   151.47   183.89   231.10
          (Kelvin)            287.90   302.53   331.94   354.59   393.80
                              421.42   426.65   477.64   515.98   551.63
                              601.75   649.18   691.32   748.69   807.58
                              830.17   906.62   932.81   940.66   989.09
                             1041.98  1050.72  1089.08  1128.54  1150.92
                             1169.81  1196.71  1211.96  1226.15  1289.72
                             1314.81  1362.32  1376.20  1385.75  1396.05
                             1412.55  1448.07  1516.81  1554.36  1575.58
                             1615.38  1687.55  1737.98  1775.11  1796.68
                             1798.26  1837.05  1844.34  1947.04  1962.30
                             2009.16  2025.43  2083.38  2127.71  2331.02
                             2356.90  2397.81  2400.31  2408.69  2422.20
                             2500.35  2546.24  4443.00  4457.16  4485.40
                             4509.67  4519.86  4544.41  4609.60  4942.42
                             5024.35  5154.88  5193.89

 Zero-point correction=                           0.215818 (Hartree/Particle)
 Thermal correction to Energy=                    0.230028
 Thermal correction to Enthalpy=                  0.230972
 Thermal correction to Gibbs Free Energy=         0.175425
 Sum of electronic and zero-point Energies=           -737.315991
 Sum of electronic and thermal Energies=              -737.301780
 Sum of electronic and thermal Enthalpies=            -737.300836
 Sum of electronic and thermal Free Energies=         -737.356383

                     E (Thermal)             CV                S
                      KCal/Mol        Cal/Mol-Kelvin    Cal/Mol-Kelvin
 Total                  144.345             56.633            116.908
 Electronic               0.000              0.000              0.000
 Translational            0.889              2.981             42.137
 Rotational               0.889              2.981             32.271
 Vibrational            142.567             50.671             42.500
 Vibration     1          0.595              1.979              5.021
 Vibration     2          0.600              1.964              3.932
 Vibration     3          0.605              1.945              3.354
 Vibration     4          0.611              1.925              2.979
 Vibration     5          0.622              1.891              2.542
 Vibration     6          0.638              1.840              2.132
 Vibration     7          0.642              1.825              2.041
 Vibration     8          0.652              1.794              1.873
 Vibration     9          0.661              1.769              1.756
 Vibration    10          0.676              1.722              1.573
 Vibration    11          0.688              1.687              1.457
 Vibration    12          0.690              1.680              1.436
 Vibration    13          0.714              1.612              1.250
 Vibration    14          0.733              1.558              1.128
 Vibration    15          0.753              1.506              1.026
 Vibration    16          0.781              1.431              0.898
 Vibration    17          0.810              1.358              0.792
 Vibration    18          0.837              1.293              0.709
 Vibration    19          0.875              1.205              0.609
 Vibration    20          0.917              1.115              0.521
 Vibration    21          0.933              1.081              0.491

 Optimization completed.
    -- Stationary point found.
 Normal termination of Gaussian 16 at Sat May 20 09:04:50 2023.
