 Gaussian 16, Revision A.03,
 Gaussian 16:  ES64L-G16RevA.03 25-Dec-2016

 -----------------------------
 # opt freq b3lyp/6-31g(2df,p)
 -----------------------------

 -------------------
 Title Card Required
 -------------------
 Symbolic Z-matrix:
 Charge =  0 Multiplicity = 1

 SCF Done:  E(RB3LYP) =  -1651.64805630     A.U. after   17 cycles
 SCF Done:  E(RB3LYP) =  -1651.67867809     A.U. after   14 cycles
 SCF Done:  E(RB3LYP) =  -1651.71593263     A.U. after   14 cycles
 SCF Done:  E(RB3LYP) =  -1651.73427761     A.U. after   13 cycles
 SCF Done:  E(RB3LYP) =  -1651.74995471     A.U. after   13 cycles
 SCF Done:  E(RB3LYP) =  -1651.75572986     A.U. after   13 cycles
 SCF Done:  E(RB3LYP) =  -1651.76381947     A.U. after   13 cycles
 SCF Done:  E(RB3LYP) =  -1651.76799044     A.U. after   13 cycles
 SCF Done:  E(RB3LYP) =  -1651.76983405     A.U. after   11 cycles
 SCF Done:  E(RB3LYP) =  -1651.77070943     A.U. after   11 cycles
 SCF Done:  E(RB3LYP) =  -1651.78189385     A.U. after    9 cycles
 SCF Done:  E(RB3LYP) =  -1651.78189526     A.U. after    8 cycles
 SCF Done:  E(RB3LYP) =  -1651.78189559     A.U. after    8 cycles
 SCF Done:  E(RB3LYP) =  -1651.78189725     A.U. after    8 cycles
 SCF Done:  E(RB3LYP) =  -1651.78189792     A.U. after    8 cycles
 SCF Done:  E(RB3LYP) =  -1651.78189825     A.U. after    8 cycles
 SCF Done:  E(RB3LYP) =  -1651.78189848     A.U. after    7 cycles
 SCF Done:  E(RB3LYP) =  -1651.78189851     A.U. after    7 cycles
 SCF Done:  E(RB3LYP) =  -1651.78189852     A.U. after    6 cycles
 Optimization completed.
    -- Stationary point found.
 Normal termination of Gaussian 16 at Thu May 18 16:03:29 2023.

 ----------------------------------------------------------------------
 #N Geom=AllCheck Guess=TCheck SCRF=Check GenChk RB3LYP/6-31G(2df,p) Fr
 eq
 ----------------------------------------------------------------------

 Structure from the checkpoint file:  "NdCCNCC[SH]dCSS.NdCN.chk"
 -------------------
 Title Card Required
 -------------------
 Charge =  0 Multiplicity = 1

                         Standard orientation:
 ---------------------------------------------------------------------
 Center     Atomic      Atomic             Coordinates (Angstroms)
 Number     Number       Type             X           Y           Z
 ---------------------------------------------------------------------
      1          7           0       -4.861210   -2.826507    0.539192
      2          6           0       -4.279875   -1.733739    0.263318
      3          6           0       -3.122977   -1.701419   -0.702583
      4          7           0       -1.962089   -1.049755   -0.079797
      5          6           0       -0.824970   -0.888479   -0.989563
      6          6           0        0.322316   -0.181971   -0.273515
      7         16           0        1.772747    0.115092   -1.415701
      8          6           0        3.005149    1.038742   -0.698190
      9         16           0        4.396924    0.175770   -0.224046
     10         16           0        4.037243   -0.873953    1.650973
     11          7           0       -3.329491    3.921097    0.510016
     12          6           0       -3.207296    2.698894    0.165056
     13          7           0       -2.929332    1.701295    1.056986
     14          1           0       -5.626349   -2.673559    1.200391
     15          1           0       -4.546305   -0.758013    0.692313
     16          1           0       -3.408841   -1.098887   -1.576197
     17          1           0       -2.920363   -2.723893   -1.052291
     18          1           0       -1.668987   -1.607110    0.718912
     19          1           0       -1.166726   -0.282076   -1.838936
     20          1           0       -0.475507   -1.847842   -1.406088
     21          1           0        0.753836   -0.791843    0.525502
     22          1           0        0.010798    0.778133    0.144421
     23          1           0        1.088323    0.998985   -2.193815
     24          1           0        2.709009    1.969863   -0.225726
     25          1           0        4.331068    0.137622    2.493721
     26          1           0       -3.583858    4.491564   -0.292742
     27          1           0       -3.339663    2.314675   -0.856697
     28          1           0       -2.677619    1.995887    1.988690
     29          1           0       -2.568666    0.810865    0.727006
 ---------------------------------------------------------------------

 SCF Done:  E(RB3LYP) =  -1651.78189852     A.U. after    1 cycles

 The electronic state is 1-A.
 Alpha  occ. eigenvalues --  -88.97780 -88.88494 -88.85903 -14.36587 -14.33747
 Alpha  occ. eigenvalues --  -14.33495 -14.28450 -10.25571 -10.24837 -10.24732
 Alpha  occ. eigenvalues --  -10.24383 -10.23961 -10.20373  -8.03469  -7.94469
 Alpha  occ. eigenvalues --   -7.92600  -5.99777  -5.99705  -5.99239  -5.91035
 Alpha  occ. eigenvalues --   -5.90580  -5.89979  -5.88987  -5.88713  -5.88133
 Alpha  occ. eigenvalues --   -0.95366  -0.93250  -0.91648  -0.87108  -0.83930
 Alpha  occ. eigenvalues --   -0.79395  -0.75840  -0.71400  -0.67859  -0.64876
 Alpha  occ. eigenvalues --   -0.60376  -0.59122  -0.57624  -0.55151  -0.53684
 Alpha  occ. eigenvalues --   -0.52249  -0.50315  -0.48770  -0.46789  -0.44993
 Alpha  occ. eigenvalues --   -0.44838  -0.44196  -0.43548  -0.42385  -0.41191
 Alpha  occ. eigenvalues --   -0.40166  -0.39574  -0.36741  -0.36434  -0.33894
 Alpha  occ. eigenvalues --   -0.33483  -0.32809  -0.28195  -0.27757  -0.25486
 Alpha  occ. eigenvalues --   -0.24056  -0.23310  -0.23111  -0.20788
 Alpha virt. eigenvalues --   -0.03370  -0.02450   0.00381   0.01919   0.02916
 Alpha virt. eigenvalues --    0.04070   0.05777   0.05804   0.07466   0.08284
 Alpha virt. eigenvalues --    0.08785   0.09971   0.11002   0.12020   0.12383

 Mulliken charges:
               1
     1  N   -0.366304
     2  C    0.010870
     3  C   -0.171229
     4  N   -0.301091
     5  C   -0.147882
     6  C   -0.259509
     7  S    0.093226
     8  C   -0.203032
     9  S   -0.113147
    10  S   -0.310337
    11  N   -0.450155
    12  C    0.070203
    13  N   -0.476646
    14  H    0.234625
    15  H    0.115410
    16  H    0.123153
    17  H    0.120163
    18  H    0.236785
    19  H    0.115403
    20  H    0.120831
    21  H    0.170444
    22  H    0.151678
    23  H    0.154996
    24  H    0.118664
    25  H    0.161823
    26  H    0.214869
    27  H    0.071774
    28  H    0.248917
    29  H    0.265496
 Sum of Mulliken charges =  -0.00000

 Dipole moment (field-independent basis, Debye):
    X=             -4.1333    Y=             -0.7644    Z=             -2.1756  Tot=              4.7330
 Quadrupole moment (field-independent basis, Debye-Ang):
   XX=           -129.1241   YY=           -119.8707   ZZ=            -95.1510
   XY=              8.3287   XZ=              3.1845   YZ=             -5.9786

  Exact polarizability: 199.541   6.177 156.387  15.615 -15.785 149.235
 Approx polarizability: 254.517   6.014 253.994  22.702 -36.148 254.140

                      1                      2                      3
                      A                      A                      A
 Frequencies --     12.6566                16.5556                21.2700
 Red. masses --      7.4603                 7.0295                 9.3025
 Frc consts  --      0.0007                 0.0011                 0.0025
 IR Inten    --      1.8983                 2.5599                 0.5176

                      4                      5                      6
                      A                      A                      A
 Frequencies --     38.5025                49.1073                54.3710
 Red. masses --      3.5170                 4.0737                 3.3381
 Frc consts  --      0.0031                 0.0058                 0.0058
 IR Inten    --      1.7774                 1.1848                 3.5588

                      7                      8                      9
                      A                      A                      A
 Frequencies --     56.5650                77.5427                87.0002
 Red. masses --      4.7487                 4.5223                 3.1017
 Frc consts  --      0.0090                 0.0160                 0.0138
 IR Inten    --      4.8291                 5.0568                 3.7291

                     10                     11                     12
                      A                      A                      A
 Frequencies --     99.0635               112.5297               125.3373
 Red. masses --      3.9761                 2.6898                 2.8782
 Frc consts  --      0.0230                 0.0201                 0.0266
 IR Inten    --      3.1040                 0.7645                 1.9534

                     13                     14                     15
                      A                      A                      A
 Frequencies --    135.8867               180.2631               193.3172
 Red. masses --      2.6600                 4.1189                 4.9007
 Frc consts  --      0.0289                 0.0789                 0.1079
 IR Inten    --      1.4223                 8.6682                12.4105

                     16                     17                     18
                      A                      A                      A
 Frequencies --    215.4177               268.5113               288.1456
 Red. masses --      3.7023                 1.6322                 2.5451
 Frc consts  --      0.1012                 0.0693                 0.1245
 IR Inten    --      9.3952                14.4051                 0.6215

                     19                     20                     21
                      A                      A                      A
 Frequencies --    333.8163               364.3344               384.5286
 Red. masses --      3.6276                 3.8945                15.3601
 Frc consts  --      0.2382                 0.3046                 1.3381
 IR Inten    --      8.2532                26.1547                47.7628

                     22                     23                     24
                      A                      A                      A
 Frequencies --    432.9207               506.0385               536.5927
 Red. masses --      3.4371                 2.7568                 1.2653
 Frc consts  --      0.3795                 0.4159                 0.2146
 IR Inten    --      7.2960                 4.0304               226.4684

                     25                     26                     27
                      A                      A                      A
 Frequencies --    556.8537               584.3921               651.1428
 Red. masses --      2.1746                 1.3835                 2.1279
 Frc consts  --      0.3973                 0.2784                 0.5316
 IR Inten    --     34.0075                88.6728                12.9946

                     28                     29                     30
                      A                      A                      A
 Frequencies --    678.7131               720.5844               755.7388
 Red. masses --      1.1133                 1.5388                 1.6105
 Frc consts  --      0.3022                 0.4708                 0.5420
 IR Inten    --     19.4215                 3.5511                37.0520

                     31                     32                     33
                      A                      A                      A
 Frequencies --    776.9214               779.3797               821.3295
 Red. masses --      1.2750                 1.1087                 1.3108
 Frc consts  --      0.4534                 0.3968                 0.5210
 IR Inten    --      2.7461                 1.5205                50.2870

                     34                     35                     36
                      A                      A                      A
 Frequencies --    833.2813               849.8402               876.3652
 Red. masses --      2.1816                 1.3418                 2.7145
 Frc consts  --      0.8925                 0.5710                 1.2283
 IR Inten    --     18.7261                65.5629               202.2334

                     37                     38                     39
                      A                      A                      A
 Frequencies --    962.1474               989.8103              1020.4376
 Red. masses --      1.9732                 1.6469                 2.6750
 Frc consts  --      1.0762                 0.9506                 1.6411
 IR Inten    --     10.8245                 7.3879                13.6888

                     40                     41                     42
                      A                      A                      A
 Frequencies --   1045.1765              1056.4423              1067.1508
 Red. masses --      1.7505                 1.2943                 2.0516
 Frc consts  --      1.1267                 0.8511                 1.3766
 IR Inten    --     18.0582                 2.0351                11.2654

                     43                     44                     45
                      A                      A                      A
 Frequencies --   1114.9222              1121.0668              1125.9917
 Red. masses --      1.2242                 2.1095                 2.5270
 Frc consts  --      0.8966                 1.5621                 1.8877
 IR Inten    --    129.1644                40.8587                44.3063

                     46                     47                     48
                      A                      A                      A
 Frequencies --   1128.5894              1141.3052              1175.5210
 Red. masses --      1.3941                 1.4146                 1.1149
 Frc consts  --      1.0462                 1.0857                 0.9077
 IR Inten    --     45.8700                 0.3160                50.0549

                     49                     50                     51
                      A                      A                      A
 Frequencies --   1207.1887              1244.4653              1260.1582
 Red. masses --      1.1503                 1.3003                 1.2662
 Frc consts  --      0.9877                 1.1865                 1.1846
 IR Inten    --      2.8555                19.3011                16.7709

                     52                     53                     54
                      A                      A                      A
 Frequencies --   1287.3718              1321.6539              1337.7603
 Red. masses --      1.2025                 1.1474                 1.4324
 Frc consts  --      1.1742                 1.1808                 1.5104
 IR Inten    --      6.7252                 1.5716                31.0887

                     55                     56                     57
                      A                      A                      A
 Frequencies --   1341.2834              1401.4086              1410.8653
 Red. masses --      1.3200                 1.3501                 1.6850
 Frc consts  --      1.3991                 1.5622                 1.9761
 IR Inten    --     12.5205                22.1353                30.2431

                     58                     59                     60
                      A                      A                      A
 Frequencies --   1427.3037              1473.9748              1490.2289
 Red. masses --      1.5279                 1.0987                 1.1993
 Frc consts  --      1.8339                 1.4064                 1.5692
 IR Inten    --     29.8714                 4.5340                17.0262

                     61                     62                     63
                      A                      A                      A
 Frequencies --   1491.5344              1515.6955              1655.7982
 Red. masses --      1.0811                 1.0848                 1.1978
 Frc consts  --      1.4170                 1.4683                 1.9349
 IR Inten    --     22.0911                 1.8337                11.6914

                     64                     65                     66
                      A                      A                      A
 Frequencies --   1737.0337              1743.3462              2505.3632
 Red. masses --      6.5753                 4.4280                 1.0377
 Frc consts  --     11.6891                 7.9290                 3.8375
 IR Inten    --     66.8939               301.4643                70.1103

                     67                     68                     69
                      A                      A                      A
 Frequencies --   2646.9848              2968.8019              2998.7503
 Red. masses --      1.0392                 1.0675                 1.0568
 Frc consts  --      4.2901                 5.5434                 5.5993
 IR Inten    --      3.6420                40.0861                29.8309

                     70                     71                     72
                      A                      A                      A
 Frequencies --   3012.3745              3029.1255              3033.6227
 Red. masses --      1.0859                 1.0898                 1.0921
 Frc consts  --      5.8055                 5.8915                 5.9218
 IR Inten    --     65.4995                10.3152                21.2373

                     73                     74                     75
                      A                      A                      A
 Frequencies --   3045.8026              3066.7910              3131.5516
 Red. masses --      1.1028                 1.0572                 1.1089
 Frc consts  --      6.0276                 5.8583                 6.4072
 IR Inten    --     36.2595                 1.8451                 2.6232

                     76                     77                     78
                      A                      A                      A
 Frequencies --   3160.2482              3445.8895              3453.5136
 Red. masses --      1.0865                 1.0757                 1.0587
 Frc consts  --      6.3932                 7.5256                 7.4396
 IR Inten    --      7.0332                 0.6926               475.1333

                     79                     80                     81
                      A                      A                      A
 Frequencies --   3495.3024              3514.4550              3651.0265
 Red. masses --      1.0737                 1.0759                 1.0926
 Frc consts  --      7.7285                 7.8299                 8.5810
 IR Inten    --      1.8140                 0.9086                95.5456

 - Thermochemistry -
 -------------------
 Temperature   298.150 Kelvin.  Pressure   1.00000 Atm.
 Atom     1 has atomic number  7 and mass  14.00307

 Molecular mass:   240.05371 amu.
 Principal axes and moments of inertia in atomic units:
                           1         2         3
     Eigenvalues --  3139.91618********************
           X            0.99999   0.00454   0.00220
           Y           -0.00455   0.99998   0.00343
           Z           -0.00219  -0.00344   0.99999
 This molecule is an asymmetric top.
 Rotational symmetry number  1.
 Warning -- assumption of classical behavior for rotation
           may cause significant error
 Rotational temperatures (Kelvin)      0.02758     0.00851     0.00742
 Rotational constants (GHZ):           0.57477     0.17735     0.15461
 Zero-point vibrational energy     603695.8 (Joules/Mol)
                                  144.28675 (Kcal/Mol)
 Warning -- explicit consideration of  26 degrees of freedom as
           vibrations may cause significant error
 Vibrational temperatures:     18.21    23.82    30.60    55.40    70.65
          (Kelvin)             78.23    81.38   111.57   125.17   142.53
                              161.91   180.33   195.51   259.36   278.14
                              309.94   386.33   414.58   480.29   524.20
                              553.25   622.88   728.08   772.04   801.19
                              840.81   936.85   976.52  1036.76  1087.34
                             1117.82  1121.35  1181.71  1198.91  1222.73
                             1260.89  1384.32  1424.12  1468.18  1503.78
                             1519.98  1535.39  1604.12  1612.97  1620.05
                             1623.79  1642.08  1691.31  1736.88  1790.51
                             1813.09  1852.24  1901.57  1924.74  1929.81
                             2016.31  2029.92  2053.57  2120.72  2144.11
                             2145.99  2180.75  2382.32  2499.20  2508.29
                             3604.66  3808.42  4271.44  4314.53  4334.14
                             4358.24  4364.71  4382.23  4412.43  4505.60
                             4546.89  4957.87  4968.84  5028.96  5056.52
                             5253.01

 Zero-point correction=                           0.229936 (Hartree/Particle)
 Thermal correction to Energy=                    0.249224
 Thermal correction to Enthalpy=                  0.250168
 Thermal correction to Gibbs Free Energy=         0.175607
 Sum of electronic and zero-point Energies=          -1651.551963
 Sum of electronic and thermal Energies=             -1651.532675
 Sum of electronic and thermal Enthalpies=           -1651.531730
 Sum of electronic and thermal Free Energies=        -1651.606291

                     E (Thermal)             CV                S
                      KCal/Mol        Cal/Mol-Kelvin    Cal/Mol-Kelvin
 Total                  156.390             63.560            156.927
 Electronic               0.000              0.000              0.000
 Translational            0.889              2.981             42.328
 Rotational               0.889              2.981             34.277
 Vibrational            154.613             57.598             80.321
 Vibration     1          0.593              1.987              7.543
 Vibration     2          0.593              1.986              7.010
 Vibration     3          0.593              1.985              6.512
 Vibration     4          0.594              1.981              5.335
 Vibration     5          0.595              1.978              4.853
 Vibration     6          0.596              1.976              4.652
 Vibration     7          0.596              1.975              4.574
 Vibration     8          0.599              1.964              3.952
 Vibration     9          0.601              1.958              3.726
 Vibration    10          0.604              1.950              3.473
 Vibration    11          0.607              1.939              3.225
 Vibration    12          0.610              1.928              3.016
 Vibration    13          0.614              1.918              2.861
 Vibration    14          0.629              1.866              2.326
 Vibration    15          0.635              1.849              2.196
 Vibration    16          0.645              1.818              1.997
 Vibration    17          0.673              1.731              1.606
 Vibration    18          0.685              1.696              1.485
 Vibration    19          0.715              1.608              1.242
 Vibration    20          0.738              1.546              1.104
 Vibration    21          0.753              1.503              1.021
 Vibration    22          0.794              1.399              0.849
 Vibration    23          0.861              1.237              0.643
 Vibration    24          0.892              1.169              0.573
 Vibration    25          0.912              1.125              0.530
 Vibration    26          0.941              1.065              0.477

 Optimization completed.
    -- Stationary point found.
 Normal termination of Gaussian 16 at Thu May 18 17:06:55 2023.
