 Gaussian 16, Revision A.03,
 Gaussian 16:  ES64L-G16RevA.03 25-Dec-2016

 -----------------------------
 # opt freq b3lyp/6-31g(2df,p)
 -----------------------------

 -------------------
 Title Card Required
 -------------------
 Symbolic Z-matrix:
 Charge =  0 Multiplicity = 1

 SCF Done:  E(RB3LYP) =  -602.331134773     A.U. after   19 cycles
 SCF Done:  E(RB3LYP) =  -602.381655962     A.U. after   15 cycles
 SCF Done:  E(RB3LYP) =  -602.399344274     A.U. after   16 cycles
 SCF Done:  E(RB3LYP) =  -602.402627271     A.U. after   14 cycles
 SCF Done:  E(RB3LYP) =  -602.403905274     A.U. after   14 cycles
 SCF Done:  E(RB3LYP) =  -602.404986874     A.U. after   14 cycles
 SCF Done:  E(RB3LYP) =  -602.408527641     A.U. after   15 cycles
 SCF Done:  E(RB3LYP) =  -602.408321064     A.U. after   16 cycles
 SCF Done:  E(RB3LYP) =  -602.434487778     A.U. after   17 cycles
 SCF Done:  E(RB3LYP) =  -602.444408989     A.U. after   18 cycles
 SCF Done:  E(RB3LYP) =  -602.535632597     A.U. after   14 cycles
 SCF Done:  E(RB3LYP) =  -602.536115035     A.U. after   13 cycles
 SCF Done:  E(RB3LYP) =  -602.536329060     A.U. after   13 cycles
 SCF Done:  E(RB3LYP) =  -602.536428941     A.U. after   13 cycles
 SCF Done:  E(RB3LYP) =  -602.536481701     A.U. after   14 cycles
 SCF Done:  E(RB3LYP) =  -602.536514259     A.U. after   11 cycles
 SCF Done:  E(RB3LYP) =  -602.536523049     A.U. after   12 cycles
 SCF Done:  E(RB3LYP) =  -602.536526347     A.U. after   10 cycles
 SCF Done:  E(RB3LYP) =  -602.536528293     A.U. after    9 cycles
 Optimization completed.
    -- Stationary point found.
 Normal termination of Gaussian 16 at Sat May 20 16:22:00 2023.

 ----------------------------------------------------------------------
 #N Geom=AllCheck Guess=TCheck SCRF=Check GenChk RB3LYP/6-31G(2df,p) Fr
 eq
 ----------------------------------------------------------------------

 Structure from the checkpoint file:  "NdCC1qNdOrNdCCdCC2dCdNC21.chk"
 -------------------
 Title Card Required
 -------------------
 Charge =  0 Multiplicity = 1

                         Standard orientation:
 ---------------------------------------------------------------------
 Center     Atomic      Atomic             Coordinates (Angstroms)
 Number     Number       Type             X           Y           Z
 ---------------------------------------------------------------------
      1          7           0        1.643441   -1.385383    1.595558
      2          6           0        1.270583   -0.186135    1.441424
      3          6           0        0.920476    0.386149    0.076484
      4          7           0        1.820738    1.706305    0.036354
      5          8           0        2.603121    1.721987   -0.850988
      6          7           0        1.218014   -0.439956   -1.043579
      7          6           0        0.575140   -1.525030   -1.242907
      8          6           0       -0.622505   -2.037162   -0.589734
      9          6           0       -1.603540   -1.280398   -0.055422
     10          6           0       -1.586427    0.172648    0.040999
     11          6           0       -2.867502    0.819406    0.108048
     12          7           0       -3.903897    1.329615    0.179994
     13          6           0       -0.475148    0.944423    0.059103
     14          1           0        1.840448   -1.580074    2.579514
     15          1           0        1.171172    0.552612    2.247329
     16          1           0        0.938710   -2.141663   -2.070014
     17          1           0       -0.791606   -3.106031   -0.682264
     18          1           0       -2.522017   -1.764878    0.261448
     19          1           0       -0.576214    2.026669    0.065630
 ---------------------------------------------------------------------

 SCF Done:  E(RB3LYP) =  -602.536528293     A.U. after    1 cycles

 The electronic state is 1-A.
 Alpha  occ. eigenvalues --  -19.22803 -14.46361 -14.35053 -14.34495 -14.34389
 Alpha  occ. eigenvalues --  -10.27202 -10.26086 -10.25899 -10.25459 -10.24564
 Alpha  occ. eigenvalues --  -10.23575 -10.23461 -10.22652  -1.19245  -0.96943
 Alpha  occ. eigenvalues --   -0.92190  -0.91818  -0.85998  -0.83066  -0.76574
 Alpha  occ. eigenvalues --   -0.69705  -0.67022  -0.64510  -0.59867  -0.56308
 Alpha  occ. eigenvalues --   -0.55687  -0.52361  -0.50827  -0.49478  -0.49025
 Alpha  occ. eigenvalues --   -0.46448  -0.44873  -0.44069  -0.43220  -0.41452
 Alpha  occ. eigenvalues --   -0.39876  -0.37209  -0.36082  -0.34645  -0.34257
 Alpha  occ. eigenvalues --   -0.31388  -0.29885  -0.28249  -0.26333  -0.23369
 Alpha virt. eigenvalues --   -0.10043  -0.09268  -0.04784  -0.01886   0.01951
 Alpha virt. eigenvalues --    0.04467   0.07014   0.07952   0.10055   0.11533
 Alpha virt. eigenvalues --    0.13209   0.15092   0.16200   0.16476   0.18486

 Mulliken charges:
               1
     1  N   -0.389944
     2  C    0.033293
     3  C    0.164927
     4  N   -0.008749
     5  O   -0.122734
     6  N   -0.198371
     7  C    0.004546
     8  C   -0.078317
     9  C   -0.147634
    10  C    0.151340
    11  C    0.220070
    12  N   -0.320894
    13  C   -0.183256
    14  H    0.240120
    15  H    0.115610
    16  H    0.126526
    17  H    0.121094
    18  H    0.131341
    19  H    0.141033
 Sum of Mulliken charges =  -0.00000

 Dipole moment (field-independent basis, Debye):
    X=              0.8601    Y=             -2.7863    Z=              1.5618  Tot=              3.3079
 Quadrupole moment (field-independent basis, Debye-Ang):
   XX=            -92.9792   YY=            -71.0493   ZZ=            -67.1758
   XY=              6.9171   XZ=              5.3620   YZ=              1.6786

  Exact polarizability: 135.762  -2.485 116.989  -6.924   4.353  79.620
 Approx polarizability: 228.146  -1.136 206.793 -24.642   8.517 128.130

                      1                      2                      3
                      A                      A                      A
 Frequencies --     49.4570                77.2491                99.6170
 Red. masses --     11.1936                 7.3371                 5.5895
 Frc consts  --      0.0161                 0.0258                 0.0327
 IR Inten    --      0.2219                 3.1530                 2.6475

                      4                      5                      6
                      A                      A                      A
 Frequencies --    136.3175               155.2358               193.3621
 Red. masses --      6.1732                 5.4854                 4.3145
 Frc consts  --      0.0676                 0.0779                 0.0950
 IR Inten    --      8.2675                 7.0533                 7.0209

                      7                      8                      9
                      A                      A                      A
 Frequencies --    235.6930               283.6793               316.2246
 Red. masses --      5.6384                 4.5255                 6.9444
 Frc consts  --      0.1845                 0.2146                 0.4091
 IR Inten    --      2.8442                 6.8728                 0.7812

                     10                     11                     12
                      A                      A                      A
 Frequencies --    333.7486               344.4334               373.0557
 Red. masses --      5.4421                 3.7269                 9.4282
 Frc consts  --      0.3572                 0.2605                 0.7731
 IR Inten    --      2.4442                 0.8194                 2.8256

                     13                     14                     15
                      A                      A                      A
 Frequencies --    437.5433               448.5849               523.9418
 Red. masses --      4.5021                 4.2206                 4.9150
 Frc consts  --      0.5078                 0.5004                 0.7949
 IR Inten    --      4.4775                15.5416                 8.9405

                     16                     17                     18
                      A                      A                      A
 Frequencies --    565.9891               598.4002               646.6674
 Red. masses --      8.3309                 3.4074                 3.3693
 Frc consts  --      1.5724                 0.7189                 0.8301
 IR Inten    --     12.4769                37.0455                66.8651

                     19                     20                     21
                      A                      A                      A
 Frequencies --    704.7208               712.5608               769.4584
 Red. masses --      6.1531                 4.3429                 4.6949
 Frc consts  --      1.8004                 1.2992                 1.6377
 IR Inten    --     12.3319                39.8645                13.9188

                     22                     23                     24
                      A                      A                      A
 Frequencies --    789.3505               822.2584               894.1558
 Red. masses --      2.0443                 2.0016                 1.6525
 Frc consts  --      0.7505                 0.7973                 0.7784
 IR Inten    --      4.4122                43.1619                13.2700

                     25                     26                     27
                      A                      A                      A
 Frequencies --    929.0942               960.0512               962.4891
 Red. masses --      3.7176                 4.6404                 1.7273
 Frc consts  --      1.8907                 2.5200                 0.9428
 IR Inten    --      4.4696                24.4556                 1.6602

                     28                     29                     30
                      A                      A                      A
 Frequencies --   1004.0787              1013.7879              1101.4029
 Red. masses --      2.0823                 1.4043                 2.9629
 Frc consts  --      1.2369                 0.8503                 2.1177
 IR Inten    --      2.6567                 0.1571                18.3357

                     31                     32                     33
                      A                      A                      A
 Frequencies --   1112.1921              1142.0626              1162.2881
 Red. masses --      1.2875                 3.1880                 2.2096
 Frc consts  --      0.9384                 2.4499                 1.7587
 IR Inten    --      6.3251                 9.5016                14.2648

                     34                     35                     36
                      A                      A                      A
 Frequencies --   1241.9714              1274.1636              1345.3417
 Red. masses --      1.1358                 1.9302                 1.3748
 Frc consts  --      1.0323                 1.8463                 1.4661
 IR Inten    --      6.3676                13.3158                 1.6009

                     37                     38                     39
                      A                      A                      A
 Frequencies --   1402.9621              1414.7493              1455.7718
 Red. masses --      1.3579                 1.3002                 1.7357
 Frc consts  --      1.5747                 1.5333                 2.1673
 IR Inten    --     12.2753                11.3596                10.0838

                     40                     41                     42
                      A                      A                      A
 Frequencies --   1602.2480              1661.2736              1703.0183
 Red. masses --      8.9143                 7.0932                 7.9476
 Frc consts  --     13.4833                11.5339                13.5807
 IR Inten    --      6.0228                43.9307               126.8069

                     43                     44                     45
                      A                      A                      A
 Frequencies --   1709.0045              1747.5834              2344.4644
 Red. masses --      8.1032                11.4622                12.6866
 Frc consts  --     13.9441                20.6249                41.0849
 IR Inten    --     29.6598               129.3969                13.6022

                     46                     47                     48
                      A                      A                      A
 Frequencies --   3034.9698              3086.4390              3164.5667
 Red. masses --      1.0877                 1.0863                 1.0897
 Frc consts  --      5.9031                 6.0972                 6.4297
 IR Inten    --     25.4429                25.2691                 4.3328

                     49                     50                     51
                      A                      A                      A
 Frequencies --   3168.6209              3186.9972              3454.8071
 Red. masses --      1.0850                 1.0946                 1.0760
 Frc consts  --      6.4186                 6.5504                 7.5669
 IR Inten    --      1.6207                 6.9346                 0.7699

 - Thermochemistry -
 -------------------
 Temperature   298.150 Kelvin.  Pressure   1.00000 Atm.
 Atom     1 has atomic number  7 and mass  14.00307

 Molecular mass:   174.05416 amu.
 Principal axes and moments of inertia in atomic units:
                           1         2         3
     Eigenvalues --  1474.714982742.367823307.10343
           X            0.99994   0.00390   0.01024
           Y           -0.00412   0.99977   0.02084
           Z           -0.01016  -0.02088   0.99973
 This molecule is an asymmetric top.
 Rotational symmetry number  1.
 Warning -- assumption of classical behavior for rotation
           may cause significant error
 Rotational temperatures (Kelvin)      0.05873     0.03158     0.02619
 Rotational constants (GHZ):           1.22379     0.65810     0.54572
 Zero-point vibrational energy     346307.6 (Joules/Mol)
                                   82.76950 (Kcal/Mol)
 Warning -- explicit consideration of  17 degrees of freedom as
           vibrations may cause significant error
 Vibrational temperatures:     71.16   111.14   143.33   196.13   223.35
          (Kelvin)            278.20   339.11   408.15   454.98   480.19
                              495.56   536.74   629.53   645.41   753.84
                              814.33   860.96   930.41  1013.94  1025.22
                             1107.08  1135.70  1183.05  1286.49  1336.76
                             1381.30  1384.81  1444.65  1458.61  1584.67
                             1600.20  1643.17  1672.27  1786.92  1833.24
                             1935.65  2018.55  2035.51  2094.53  2305.28
                             2390.20  2450.26  2458.88  2514.38  3373.16
                             4366.64  4440.70  4553.11  4558.94  4585.38
                             4970.70

 Zero-point correction=                           0.131902 (Hartree/Particle)
 Thermal correction to Energy=                    0.143490
 Thermal correction to Enthalpy=                  0.144434
 Thermal correction to Gibbs Free Energy=         0.093930
 Sum of electronic and zero-point Energies=           -602.404627
 Sum of electronic and thermal Energies=              -602.393039
 Sum of electronic and thermal Enthalpies=            -602.392094
 Sum of electronic and thermal Free Energies=         -602.442599

                     E (Thermal)             CV                S
                      KCal/Mol        Cal/Mol-Kelvin    Cal/Mol-Kelvin
 Total                   90.041             42.540            106.295
 Electronic               0.000              0.000              0.000
 Translational            0.889              2.981             41.370
 Rotational               0.889              2.981             30.970
 Vibrational             88.264             36.578             33.955
 Vibration     1          0.595              1.978              4.839
 Vibration     2          0.599              1.964              3.960
 Vibration     3          0.604              1.949              3.462
 Vibration     4          0.614              1.917              2.855
 Vibration     5          0.620              1.897              2.607
 Vibration     6          0.635              1.849              2.195
 Vibration     7          0.655              1.786              1.835
 Vibration     8          0.682              1.704              1.511
 Vibration     9          0.703              1.643              1.330
 Vibration    10          0.715              1.608              1.242
 Vibration    11          0.723              1.587              1.192
 Vibration    12          0.744              1.527              1.067
 Vibration    13          0.798              1.388              0.834
 Vibration    14          0.808              1.364              0.800
 Vibration    15          0.879              1.197              0.601
 Vibration    16          0.922              1.105              0.512
 Vibration    17          0.956              1.035              0.452

                           ! Non-Optimized Parameters !
 Normal termination of Gaussian 16 at Sat May 20 17:16:50 2023.
