 Gaussian 16, Revision A.03,
 Gaussian 16:  ES64L-G16RevA.03 25-Dec-2016

 -----------------------------
 # opt freq b3lyp/6-31g(2df,p)
 -----------------------------

 -------------------
 Title Card Required
 -------------------
 Symbolic Z-matrix:
 Charge =  0 Multiplicity = 1

 SCF Done:  E(RB3LYP) =  -948.546009110     A.U. after   22 cycles
 SCF Done:  E(RB3LYP) =  -948.594546678     A.U. after   17 cycles
 SCF Done:  E(RB3LYP) =  -948.638647222     A.U. after   16 cycles
 SCF Done:  E(RB3LYP) =  -948.658500553     A.U. after   15 cycles
 SCF Done:  E(RB3LYP) =  -948.664977098     A.U. after   16 cycles
 SCF Done:  E(RB3LYP) =  -948.677427119     A.U. after   15 cycles
 SCF Done:  E(RB3LYP) =  -948.682724688     A.U. after   15 cycles
 SCF Done:  E(RB3LYP) =  -948.687354136     A.U. after   15 cycles
 SCF Done:  E(RB3LYP) =  -948.689890435     A.U. after   14 cycles
 SCF Done:  E(RB3LYP) =  -948.691039860     A.U. after   14 cycles
 SCF Done:  E(RB3LYP) =  -948.691505253     A.U. after   14 cycles
 SCF Done:  E(RB3LYP) =  -948.691929874     A.U. after   14 cycles
 SCF Done:  E(RB3LYP) =  -948.692218185     A.U. after   14 cycles
 SCF Done:  E(RB3LYP) =  -948.692297106     A.U. after   13 cycles
 SCF Done:  E(RB3LYP) =  -948.692325663     A.U. after   12 cycles
 SCF Done:  E(RB3LYP) =  -948.692334936     A.U. after   12 cycles
 SCF Done:  E(RB3LYP) =  -948.692338146     A.U. after    9 cycles
 SCF Done:  E(RB3LYP) =  -948.692338591     A.U. after    9 cycles
 SCF Done:  E(RB3LYP) =  -948.692338725     A.U. after    8 cycles
 Optimization completed.
    -- Stationary point found.

 The electronic state is 1-A.
 Alpha  occ. eigenvalues --  -88.93772 -14.33208 -14.33172 -14.31862 -10.24647
 Alpha  occ. eigenvalues --  -10.24246 -10.23957 -10.23895 -10.23178 -10.22773
 Alpha  occ. eigenvalues --  -10.22213 -10.21977 -10.21647 -10.21599  -7.99609
 Alpha  occ. eigenvalues --   -5.96010  -5.95603  -5.95483  -0.99367  -0.93256
 Alpha  occ. eigenvalues --   -0.89871  -0.85323  -0.82886  -0.78144  -0.73638
 Alpha  occ. eigenvalues --   -0.70785  -0.66424  -0.60567  -0.59185  -0.56846
 Alpha  occ. eigenvalues --   -0.53219  -0.52395  -0.51180  -0.50206  -0.49088
 Alpha  occ. eigenvalues --   -0.46238  -0.45350  -0.43553  -0.43112  -0.41015
 Alpha  occ. eigenvalues --   -0.39741  -0.39327  -0.36642  -0.33936  -0.33437
 Alpha  occ. eigenvalues --   -0.31745  -0.31157  -0.30025  -0.27057  -0.26235
 Alpha  occ. eigenvalues --   -0.25776  -0.24665  -0.20426
 Alpha virt. eigenvalues --   -0.10311  -0.03841  -0.02142   0.00328   0.01042
 Alpha virt. eigenvalues --    0.05769   0.07646   0.08838   0.09582   0.11316
 Alpha virt. eigenvalues --    0.13096   0.13768   0.14543   0.15605   0.16838

 Mulliken charges:
               1
     1  N   -0.373797
     2  C    0.046591
     3  C   -0.175774
     4  N   -0.181127
     5  C   -0.108493
     6  C    0.192687
     7  C   -0.062328
     8  C   -0.109208
     9  N   -0.247379
    10  C    0.184607
    11  C   -0.178336
    12  C   -0.050954
    13  C   -0.145840
    14  S    0.059241
    15  H    0.226541
    16  H    0.101193
    17  H    0.109000
    18  H    0.126500
    19  H    0.085797
    20  H    0.123175
    21  H    0.126179
    22  H    0.117327
    23  H    0.134399
 Sum of Mulliken charges =  -0.00000

 Dipole moment (field-independent basis, Debye):
    X=             -0.4133    Y=              1.8403    Z=             -0.2371  Tot=              1.9010
 Quadrupole moment (field-independent basis, Debye-Ang):
   XX=            -97.1930   YY=            -78.4582   ZZ=            -85.5074
   XY=              6.5211   XZ=             -5.1193   YZ=             -1.0751

 Normal termination of Gaussian 16 at Sat May 20 19:44:33 2023.

 ----------------------------------------------------------------------
 #N Geom=AllCheck Guess=TCheck SCRF=Check GenChk RB3LYP/6-31G(2df,p) Fr
 eq
 ----------------------------------------------------------------------

 Structure from the checkpoint file:  "NdCCNdCC1dC2CdNC1dCCdCS2.chk"
 -------------------
 Title Card Required
 -------------------
 Charge =  0 Multiplicity = 1

                         Standard orientation:
 ---------------------------------------------------------------------
 Center     Atomic      Atomic             Coordinates (Angstroms)
 Number     Number       Type             X           Y           Z
 ---------------------------------------------------------------------
      1          7           0       -4.868775    1.088452   -0.488643
      2          6           0       -4.067030    0.596152    0.361205
      3          6           0       -3.348678   -0.704469    0.092585
      4          7           0       -1.952950   -0.589981    0.479807
      5          6           0       -1.078540   -0.909449   -0.381294
      6          6           0        0.364171   -0.875846   -0.109383
      7          6           0        1.069014   -0.560450    1.122139
      8          6           0        1.361814   -1.884652    0.478600
      9          7           0        2.332645   -1.619896   -0.647280
     10          6           0        1.522854   -0.741989   -1.147783
     11          6           0        1.723903    0.451665   -1.925493
     12          6           0        1.954957    1.615973   -1.234049
     13          6           0        2.096058    1.834663    0.161389
     14         16           0        2.037045    0.788736    1.495252
     15          1           0       -5.279342    1.956279   -0.136414
     16          1           0       -3.829818    1.048010    1.333938
     17          1           0       -3.505705   -0.995953   -0.956395
     18          1           0       -3.807338   -1.474400    0.732369
     19          1           0       -1.349616   -1.248435   -1.393939
     20          1           0        1.207810   -2.859099    0.921540
     21          1           0        1.538512    0.483927   -2.993375
     22          1           0        2.031108    2.526142   -1.825202
     23          1           0        2.234084    2.864145    0.478763
 ---------------------------------------------------------------------

 SCF Done:  E(RB3LYP) =  -948.692338725     A.U. after    1 cycles
