 Gaussian 16, Revision A.03,
 Gaussian 16:  ES64L-G16RevA.03 25-Dec-2016

 -----------------------------
 # opt freq b3lyp/6-31g(2df,p)
 -----------------------------

 -------------------
 Title Card Required
 -------------------
 Symbolic Z-matrix:
 Charge =  0 Multiplicity = 1

 SCF Done:  E(RB3LYP) =  -1368.75843666     A.U. after   20 cycles
 SCF Done:  E(RB3LYP) =  -1368.82122627     A.U. after   17 cycles
 SCF Done:  E(RB3LYP) =  -1368.86822530     A.U. after   16 cycles
 SCF Done:  E(RB3LYP) =  -1368.90244307     A.U. after   16 cycles
 SCF Done:  E(RB3LYP) =  -1368.93006511     A.U. after   18 cycles
 SCF Done:  E(RB3LYP) =  -1368.93931200     A.U. after   16 cycles
 SCF Done:  E(RB3LYP) =  -1368.94413189     A.U. after   18 cycles
 SCF Done:  E(RB3LYP) =  -1368.94674590     A.U. after   15 cycles
 SCF Done:  E(RB3LYP) =  -1368.94767634     A.U. after   15 cycles
 SCF Done:  E(RB3LYP) =  -1368.94750401     A.U. after   15 cycles
 SCF Done:  E(RB3LYP) =  -1368.94884709     A.U. after   12 cycles
 SCF Done:  E(RB3LYP) =  -1368.94885712     A.U. after   11 cycles
 SCF Done:  E(RB3LYP) =  -1368.94886036     A.U. after   11 cycles
 SCF Done:  E(RB3LYP) =  -1368.94886260     A.U. after   10 cycles
 SCF Done:  E(RB3LYP) =  -1368.94886394     A.U. after   10 cycles
 SCF Done:  E(RB3LYP) =  -1368.94886472     A.U. after   10 cycles
 SCF Done:  E(RB3LYP) =  -1368.94886522     A.U. after    9 cycles
 SCF Done:  E(RB3LYP) =  -1368.94886547     A.U. after    8 cycles
 SCF Done:  E(RB3LYP) =  -1368.94886553     A.U. after    8 cycles
 Optimization completed.
    -- Stationary point found.
 Normal termination of Gaussian 16 at Wed May 17 08:21:14 2023.

 ----------------------------------------------------------------------
 #N Geom=AllCheck Guess=TCheck SCRF=Check GenChk RB3LYP/6-31G(2df,p) Fr
 eq
 ----------------------------------------------------------------------

 Structure from the checkpoint file:  "NdCdCC1dS2CdCCdCCdC2SNdCCdC1.chk"
 -------------------
 Title Card Required
 -------------------
 Charge =  0 Multiplicity = 1

                         Standard orientation:
 ---------------------------------------------------------------------
 Center     Atomic      Atomic             Coordinates (Angstroms)
 Number     Number       Type             X           Y           Z
 ---------------------------------------------------------------------
      1          7           0        0.862808   -4.042402    0.526486
      2          6           0        1.011662   -2.891043    0.145707
      3          6           0        1.251395   -1.732149   -0.455754
      4          6           0        0.273518   -0.918044   -1.114163
      5         16           0        0.474357    0.807792   -1.282460
      6          6           0        2.174354    1.213850   -1.265650
      7          6           0        3.004646    1.236443   -0.188955
      8          6           0        2.765210    0.994585    1.193977
      9          6           0        1.587202    0.901832    1.895296
     10          6           0        0.236223    1.117572    1.503506
     11          6           0       -0.295800    1.365634    0.265257
     12         16           0       -2.074215    1.764460    0.091665
     13          7           0       -3.190551    0.498969    0.405914
     14          6           0       -3.103296   -0.789698    0.335944
     15          6           0       -1.955472   -1.583861   -0.074892
     16          6           0       -1.144833   -1.003871   -1.003723
     17          1           0        0.634177   -4.186187    1.512240
     18          1           0        2.283745   -1.397064   -0.444488
     19          1           0        2.530304    1.474495   -2.254584
     20          1           0        4.040225    1.472669   -0.431742
     21          1           0        3.668987    0.905060    1.789962
     22          1           0        1.706326    0.724474    2.961434
     23          1           0       -0.478292    1.154550    2.323040
     24          1           0       -4.002067   -1.296237    0.705324
     25          1           0       -1.671340   -2.438447    0.530105
     26          1           0       -1.648994   -0.232809   -1.584671
 ---------------------------------------------------------------------

 SCF Done:  E(RB3LYP) =  -1368.94886553     A.U. after    1 cycles

 The electronic state is 1-A.
 Alpha  occ. eigenvalues --  -88.97793 -88.89706 -14.36047 -14.33698 -10.25823
 Alpha  occ. eigenvalues --  -10.23986 -10.23329 -10.22941 -10.22331 -10.22297
 Alpha  occ. eigenvalues --  -10.21549 -10.21271 -10.20921 -10.20736 -10.19669
 Alpha  occ. eigenvalues --  -10.16987  -8.03031  -7.95382  -5.99395  -5.99314
 Alpha  occ. eigenvalues --   -5.98814  -5.92027  -5.91509  -5.90879  -0.94056
 Alpha  occ. eigenvalues --   -0.91205  -0.89371  -0.83654  -0.80756  -0.79839
 Alpha  occ. eigenvalues --   -0.76642  -0.72786  -0.71825  -0.66503  -0.65717
 Alpha  occ. eigenvalues --   -0.59842  -0.56302  -0.55965  -0.55148  -0.53656
 Alpha  occ. eigenvalues --   -0.51421  -0.50576  -0.48724  -0.46968  -0.45494
 Alpha  occ. eigenvalues --   -0.44481  -0.42501  -0.40976  -0.40474  -0.39105
 Alpha  occ. eigenvalues --   -0.38786  -0.38441  -0.36510  -0.34976  -0.34218
 Alpha  occ. eigenvalues --   -0.34153  -0.31912  -0.31521  -0.29503  -0.27513
 Alpha  occ. eigenvalues --   -0.24866  -0.23424  -0.21329  -0.15976
 Alpha virt. eigenvalues --   -0.10077  -0.04168  -0.03591  -0.00955   0.01691
 Alpha virt. eigenvalues --    0.02019   0.05190   0.05531   0.05981   0.07885
 Alpha virt. eigenvalues --    0.08579   0.09184   0.10456   0.10697   0.12892

 Mulliken charges:
               1
     1  N   -0.491430
     2  C    0.349265
     3  C   -0.279244
     4  C    0.065647
     5  S    0.157267
     6  C   -0.226315
     7  C   -0.045497
     8  C   -0.108611
     9  C   -0.061019
    10  C   -0.078490
    11  C   -0.015235
    12  S   -0.081980
    13  N   -0.203207
    14  C    0.018223
    15  C   -0.210224
    16  C   -0.125868
    17  H    0.267051
    18  H    0.138258
    19  H    0.138285
    20  H    0.118894
    21  H    0.101029
    22  H    0.105193
    23  H    0.128065
    24  H    0.105326
    25  H    0.087353
    26  H    0.147264
 Sum of Mulliken charges =  -0.00000

 Dipole moment (field-independent basis, Debye):
    X=              4.8285    Y=             -0.3139    Z=              1.5335  Tot=              5.0759
 Quadrupole moment (field-independent basis, Debye-Ang):
   XX=           -104.9212   YY=           -113.0215   ZZ=            -99.1557
   XY=              9.4507   XZ=              0.1067   YZ=             -8.9974

  Exact polarizability: 249.393  27.254 239.060   0.946  -1.979 147.419
 Approx polarizability: 508.219 105.343 578.715   3.628  29.519 319.391

                      1                      2                      3
                      A                      A                      A
 Frequencies --     37.4628                54.3005                93.3387
 Red. masses --      6.4663                 5.1836                 6.0991
 Frc consts  --      0.0053                 0.0090                 0.0313
 IR Inten    --      1.7916                 1.5870                 1.8635

                      4                      5                      6
                      A                      A                      A
 Frequencies --    116.0078               143.2569               151.0856
 Red. masses --      4.1170                 4.8343                 4.4634
 Frc consts  --      0.0326                 0.0585                 0.0600
 IR Inten    --      2.9321                 3.8874                22.2539

                      7                      8                      9
                      A                      A                      A
 Frequencies --    179.9066               196.4508               224.1821
 Red. masses --      4.1081                 4.6963                 8.9564
 Frc consts  --      0.0783                 0.1068                 0.2652
 IR Inten    --     20.1468                17.7500                 2.4415

                     10                     11                     12
                      A                      A                      A
 Frequencies --    247.7553               272.0397               299.7194
 Red. masses --      5.6367                 5.7769                 7.3808
 Frc consts  --      0.2039                 0.2519                 0.3906
 IR Inten    --      3.7363                 5.7382                 6.8752

                     13                     14                     15
                      A                      A                      A
 Frequencies --    339.5010               358.8310               396.0664
 Red. masses --      5.3646                 5.6261                 3.9310
 Frc consts  --      0.3643                 0.4268                 0.3633
 IR Inten    --      7.8701                 5.1022                30.7829

                     16                     17                     18
                      A                      A                      A
 Frequencies --    411.7580               423.8090               464.4496
 Red. masses --      4.7846                 2.9046                 4.5307
 Frc consts  --      0.4780                 0.3074                 0.5758
 IR Inten    --     17.9711                37.1096                34.8222

                     19                     20                     21
                      A                      A                      A
 Frequencies --    475.0226               492.9282               510.1048
 Red. masses --      5.1995                 7.5251                 6.2279
 Frc consts  --      0.6913                 1.0773                 0.9548
 IR Inten    --     22.8911                15.4908                44.5158

                     22                     23                     24
                      A                      A                      A
 Frequencies --    526.9780               564.3952               585.0304
 Red. masses --      4.6114                 5.0730                 3.6040
 Frc consts  --      0.7545                 0.9521                 0.7268
 IR Inten    --     13.4848                49.1972                 3.3186

                     25                     26                     27
                      A                      A                      A
 Frequencies --    604.7802               630.3807               673.2736
 Red. masses --      6.0756                 1.9520                 1.3403
 Frc consts  --      1.3093                 0.4570                 0.3580
 IR Inten    --     21.3678                57.7605                30.1737

                     28                     29                     30
                      A                      A                      A
 Frequencies --    712.9208               722.5459               771.6838
 Red. masses --      2.9120                 4.5249                 1.9280
 Frc consts  --      0.8720                 1.3918                 0.6764
 IR Inten    --     36.1505                 5.1804                 8.5010

                     31                     32                     33
                      A                      A                      A
 Frequencies --    777.4139               791.1828               864.3903
 Red. masses --      1.7658                 6.1515                 1.3008
 Frc consts  --      0.6288                 2.2687                 0.5726
 IR Inten    --     41.4037                 2.2506                27.9406

                     34                     35                     36
                      A                      A                      A
 Frequencies --    867.8375               900.2736               906.5671
 Red. masses --      1.5532                 4.0310                 1.6107
 Frc consts  --      0.6892                 1.9249                 0.7799
 IR Inten    --     42.5385                12.8751                12.5648

                     37                     38                     39
                      A                      A                      A
 Frequencies --    914.7582               922.2309               958.2844
 Red. masses --      5.5329                 3.0729                 2.8432
 Frc consts  --      2.7278                 1.5398                 1.5383
 IR Inten    --      0.4789                 4.5676                 5.1077

                     40                     41                     42
                      A                      A                      A
 Frequencies --    975.5009               997.2972              1000.3587
 Red. masses --      1.3912                 1.2941                 1.2630
 Frc consts  --      0.7800                 0.7584                 0.7447
 IR Inten    --     47.9667                11.7976               559.9235

                     43                     44                     45
                      A                      A                      A
 Frequencies --   1009.0898              1056.5103              1088.7319
 Red. masses --      1.3073                 2.1317                 2.2498
 Frc consts  --      0.7843                 1.4019                 1.5712
 IR Inten    --     85.2293                16.3826                 0.8225

                     46                     47                     48
                      A                      A                      A
 Frequencies --   1130.6355              1231.4158              1261.3135
 Red. masses --      2.0652                 1.1912                 1.6344
 Frc consts  --      1.5554                 1.0643                 1.5319
 IR Inten    --     18.5798                27.2582                15.5577

                     49                     50                     51
                      A                      A                      A
 Frequencies --   1293.4490              1305.4233              1338.1996
 Red. masses --      1.1649                 1.3004                 2.4654
 Frc consts  --      1.1483                 1.3057                 2.6013
 IR Inten    --      1.8106                69.7895                 2.4577

                     52                     53                     54
                      A                      A                      A
 Frequencies --   1354.4264              1374.1580              1391.1201
 Red. masses --      1.2868                 1.4034                 1.5087
 Frc consts  --      1.3909                 1.5614                 1.7202
 IR Inten    --     45.1145                30.4931                17.6696

                     55                     56                     57
                      A                      A                      A
 Frequencies --   1433.2687              1464.7045              1480.2347
 Red. masses --      3.1318                 3.3329                 1.6956
 Frc consts  --      3.7905                 4.2128                 2.1889
 IR Inten    --    325.6710               132.2942                39.3877

                     58                     59                     60
                      A                      A                      A
 Frequencies --   1545.5915              1581.1425              1616.8640
 Red. masses --      5.1481                 5.5470                 3.9097
 Frc consts  --      7.2458                 8.1705                 6.0221
 IR Inten    --    126.9709                33.8547                 8.5203

                     61                     62                     63
                      A                      A                      A
 Frequencies --   1621.8366              2087.3224              3052.7501
 Red. masses --      4.4353                 9.7643                 1.0848
 Frc consts  --      6.8736                25.0653                 5.9564
 IR Inten    --     62.6193               782.0927                82.1370

                     64                     65                     66
                      A                      A                      A
 Frequencies --   3119.6774              3131.5902              3142.8823
 Red. masses --      1.0838                 1.0839                 1.0838
 Frc consts  --      6.2146                 6.2628                 6.3072
 IR Inten    --      4.3494                 9.8275                 1.9258

                     67                     68                     69
                      A                      A                      A
 Frequencies --   3156.7837              3173.2583              3174.5531
 Red. masses --      1.0871                 1.0914                 1.0842
 Frc consts  --      6.3828                 6.4750                 6.4374
 IR Inten    --      3.9130                18.6509                 5.7621

                     70                     71                     72
                      A                      A                      A
 Frequencies --   3177.5824              3206.4156              3431.9731
 Red. masses --      1.0876                 1.0905                 1.0771
 Frc consts  --      6.4699                 6.6054                 7.4750
 IR Inten    --      9.8105                 1.7923                 8.1512

 - Thermochemistry -
 -------------------
 Temperature   298.150 Kelvin.  Pressure   1.00000 Atm.
 Atom     1 has atomic number  7 and mass  14.00307

 Molecular mass:   246.02854 amu.
 Principal axes and moments of inertia in atomic units:
                           1         2         3
     Eigenvalues --  3225.343583894.391905502.03157
           X            0.99574   0.09215   0.00287
           Y           -0.09211   0.99569  -0.01121
           Z           -0.00389   0.01090   0.99993
 This molecule is an asymmetric top.
 Rotational symmetry number  1.
 Warning -- assumption of classical behavior for rotation
           may cause significant error
 Rotational temperatures (Kelvin)      0.02685     0.02224     0.01574
 Rotational constants (GHZ):           0.55955     0.46342     0.32801
 Zero-point vibrational energy     490402.9 (Joules/Mol)
                                  117.20911 (Kcal/Mol)
 Warning -- explicit consideration of  25 degrees of freedom as
           vibrations may cause significant error
 Vibrational temperatures:     53.90    78.13   134.29   166.91   206.11
          (Kelvin)            217.38   258.85   282.65   322.55   356.46
                              391.40   431.23   488.47   516.28   569.85
                              592.43   609.77   668.24   683.45   709.21
                              733.93   758.20   812.04   841.73   870.14
                              906.98   968.69  1025.73  1039.58  1110.28
                             1118.53  1138.34  1243.66  1248.62  1295.29
                             1304.35  1316.13  1326.88  1378.76  1403.53
                             1434.89  1439.29  1451.86  1520.08  1566.44
                             1626.73  1771.73  1814.75  1860.98  1878.21
                             1925.37  1948.72  1977.11  2001.51  2062.15
                             2107.38  2129.73  2223.76  2274.91  2326.31
                             2333.46  3003.19  4392.23  4488.52  4505.66
                             4521.91  4541.91  4565.61  4567.47  4571.83
                             4613.32  4937.84

 Zero-point correction=                           0.186785 (Hartree/Particle)
 Thermal correction to Energy=                    0.201827
 Thermal correction to Enthalpy=                  0.202772
 Thermal correction to Gibbs Free Energy=         0.144745
 Sum of electronic and zero-point Energies=          -1368.762081
 Sum of electronic and thermal Energies=             -1368.747038
 Sum of electronic and thermal Enthalpies=           -1368.746094
 Sum of electronic and thermal Free Energies=        -1368.804121

                     E (Thermal)             CV                S
                      KCal/Mol        Cal/Mol-Kelvin    Cal/Mol-Kelvin
 Total                  126.649             58.274            122.127
 Electronic               0.000              0.000              0.000
 Translational            0.889              2.981             42.402
 Rotational               0.889              2.981             32.602
 Vibrational            124.871             52.312             47.124
 Vibration     1          0.594              1.982              5.389
 Vibration     2          0.596              1.976              4.654
 Vibration     3          0.602              1.954              3.589
 Vibration     4          0.608              1.936              3.166
 Vibration     5          0.616              1.910              2.760
 Vibration     6          0.619              1.901              2.659
 Vibration     7          0.629              1.867              2.329
 Vibration     8          0.636              1.845              2.166
 Vibration     9          0.649              1.804              1.925
 Vibration    10          0.661              1.766              1.746
 Vibration    11          0.675              1.725              1.583
 Vibration    12          0.692              1.674              1.418
 Vibration    13          0.719              1.597              1.214
 Vibration    14          0.734              1.557              1.127
 Vibration    15          0.763              1.479              0.977
 Vibration    16          0.776              1.445              0.920
 Vibration    17          0.786              1.418              0.879
 Vibration    18          0.822              1.329              0.753
 Vibration    19          0.832              1.305              0.724
 Vibration    20          0.849              1.266              0.676
 Vibration    21          0.865              1.228              0.633
 Vibration    22          0.882              1.190              0.594
 Vibration    23          0.920              1.108              0.515
 Vibration    24          0.942              1.064              0.476
 Vibration    25          0.963              1.022              0.442

 Optimization completed.
    -- Stationary point found.
 Normal termination of Gaussian 16 at Wed May 17 10:35:21 2023.
