 Gaussian 16, Revision A.03,
 Gaussian 16:  ES64L-G16RevA.03 25-Dec-2016

 -----------------------------
 # opt freq b3lyp/6-31g(2df,p)
 -----------------------------

 -------------------
 Title Card Required
 -------------------
 Symbolic Z-matrix:
 Charge =  0 Multiplicity = 1

 SCF Done:  E(RB3LYP) =  -1077.96253515     A.U. after   21 cycles
 SCF Done:  E(RB3LYP) =  -1077.98054800     A.U. after   17 cycles
 SCF Done:  E(RB3LYP) =  -1077.98710443     A.U. after   16 cycles
 SCF Done:  E(RB3LYP) =  -1077.98881117     A.U. after   14 cycles
 SCF Done:  E(RB3LYP) =  -1077.98936686     A.U. after   13 cycles
 SCF Done:  E(RB3LYP) =  -1077.98981385     A.U. after   14 cycles
 SCF Done:  E(RB3LYP) =  -1077.99056450     A.U. after   14 cycles
 SCF Done:  E(RB3LYP) =  -1077.99221735     A.U. after   16 cycles
 SCF Done:  E(RB3LYP) =  -1077.99325434     A.U. after   15 cycles
 SCF Done:  E(RB3LYP) =  -1077.99674538     A.U. after   16 cycles
 SCF Done:  E(RB3LYP) =  -1078.01142814     A.U. after   13 cycles
 SCF Done:  E(RB3LYP) =  -1078.01155852     A.U. after   13 cycles
 SCF Done:  E(RB3LYP) =  -1078.01165351     A.U. after   14 cycles
 SCF Done:  E(RB3LYP) =  -1078.01163399     A.U. after   13 cycles
 SCF Done:  E(RB3LYP) =  -1078.01166303     A.U. after   13 cycles
 SCF Done:  E(RB3LYP) =  -1078.01166285     A.U. after   10 cycles
 SCF Done:  E(RB3LYP) =  -1078.01166263     A.U. after    8 cycles
 SCF Done:  E(RB3LYP) =  -1078.01166356     A.U. after    9 cycles
 SCF Done:  E(RB3LYP) =  -1078.01166357     A.U. after    7 cycles
 Optimization completed.
    -- Stationary point found.
 Normal termination of Gaussian 16 at Thu May 18 20:52:49 2023.

 ----------------------------------------------------------------------
 #N Geom=AllCheck Guess=TCheck SCRF=Check GenChk RB3LYP/6-31G(2df,p) Fr
 eq
 ----------------------------------------------------------------------

 Structure from the checkpoint file:  "NdCNCCqdCCNdSrN1CdCNdCqNrC1.chk"
 -------------------
 Title Card Required
 -------------------
 Charge =  0 Multiplicity = 1

                         Standard orientation:
 ---------------------------------------------------------------------
 Center     Atomic      Atomic             Coordinates (Angstroms)
 Number     Number       Type             X           Y           Z
 ---------------------------------------------------------------------
      1          7           0        1.449175    4.518659   -0.310099
      2          6           0        0.995889    3.501307    0.308496
      3          7           0        0.488009    2.411024   -0.350296
      4          6           0       -0.402799    1.456603    0.287064
      5          6           0       -0.357753    0.097970   -0.379033
      6          6           0       -1.475428   -0.504229   -0.851596
      7          6           0       -2.864531    0.075675   -0.856509
      8          7           0       -3.364915   -0.067690    0.519309
      9         16           0       -4.469152   -1.156577    0.806959
     10          7           0        0.891118   -0.489070   -0.533129
     11          6           0        1.122674   -1.480363   -1.494896
     12          6           0        2.105830   -2.378308   -1.304558
     13          7           0        2.815961   -2.476971   -0.108521
     14          6           0        2.755458   -1.458736    0.672039
     15          7           0        3.411780   -1.456206    1.874871
     16          6           0        2.055725   -0.161868    0.282061
     17          1           0        1.834200    5.192684    0.347103
     18          1           0        0.987308    3.368509    1.399631
     19          1           0        0.378678    2.540995   -1.347303
     20          1           0       -1.442717    1.797508    0.315432
     21          1           0       -0.104732    1.369779    1.339541
     22          1           0       -1.412105   -1.539909   -1.165585
     23          1           0       -3.499215   -0.446670   -1.582127
     24          1           0       -2.871373    1.148290   -1.084104
     25          1           0        0.494028   -1.450040   -2.375077
     26          1           0        2.345235   -3.109640   -2.066479
     27          1           0        3.752601   -2.355862    2.181564
     28          1           0        3.084951   -0.843633    2.603383
     29          1           0        2.760935    0.477743   -0.271985
     30          1           0        1.750358    0.388961    1.171297
 ---------------------------------------------------------------------

 SCF Done:  E(RB3LYP) =  -1078.01166357     A.U. after    1 cycles

 The electronic state is 1-A.
 Alpha  occ. eigenvalues --  -88.89330 -14.38524 -14.37676 -14.35886 -14.35538
 Alpha  occ. eigenvalues --  -14.30825 -14.29404 -10.26501 -10.25464 -10.24412
 Alpha  occ. eigenvalues --  -10.24269 -10.24210 -10.22530 -10.20781 -10.19959
 Alpha  occ. eigenvalues --  -10.18906  -7.95570  -5.92029  -5.91903  -5.90924
 Alpha  occ. eigenvalues --   -0.99191  -0.96202  -0.94782  -0.92722  -0.88660
 Alpha  occ. eigenvalues --   -0.86632  -0.80256  -0.76484  -0.74005  -0.70683
 Alpha  occ. eigenvalues --   -0.66564  -0.63925  -0.62080  -0.59338  -0.56762
 Alpha  occ. eigenvalues --   -0.54881  -0.54270  -0.52237  -0.50652  -0.50188
 Alpha  occ. eigenvalues --   -0.48004  -0.46689  -0.46417  -0.45448  -0.44362
 Alpha  occ. eigenvalues --   -0.43806  -0.43033  -0.42221  -0.41844  -0.40127
 Alpha  occ. eigenvalues --   -0.37927  -0.37171  -0.35556  -0.35376  -0.32547
 Alpha  occ. eigenvalues --   -0.31742  -0.29847  -0.26476  -0.25970  -0.24333
 Alpha  occ. eigenvalues --   -0.23489  -0.20409  -0.18441
 Alpha virt. eigenvalues --   -0.11025  -0.02268   0.01360   0.02698   0.05960
 Alpha virt. eigenvalues --    0.06187   0.07050   0.08496   0.09295   0.10519
 Alpha virt. eigenvalues --    0.11342   0.12201   0.13116   0.13358   0.14911

 Mulliken charges:
               1
     1  N   -0.474879
     2  C    0.094455
     3  N   -0.237578
     4  C   -0.286057
     5  C    0.339689
     6  C   -0.203135
     7  C   -0.212006
     8  N   -0.072279
     9  S   -0.133770
    10  N   -0.107063
    11  C   -0.056016
    12  C   -0.089858
    13  N   -0.305196
    14  C    0.380410
    15  N   -0.550318
    16  C   -0.260564
    17  H    0.222228
    18  H    0.082613
    19  H    0.251013
    20  H    0.142995
    21  H    0.130738
    22  H    0.111058
    23  H    0.118056
    24  H    0.119674
    25  H    0.120287
    26  H    0.105169
    27  H    0.263929
    28  H    0.256271
    29  H    0.139367
    30  H    0.110769
 Sum of Mulliken charges =  -0.00000

 Dipole moment (field-independent basis, Debye):
    X=              1.4308    Y=              0.4615    Z=              1.8868  Tot=              2.4125
 Quadrupole moment (field-independent basis, Debye-Ang):
   XX=           -111.1404   YY=           -112.0237   ZZ=            -92.1014
   XY=             -2.3595   XZ=             15.5090   YZ=              5.6982

  Exact polarizability: 273.901   7.930 167.547  -1.129   5.290 137.985
 Approx polarizability: 407.914  16.911 255.381  -5.956   7.904 232.670

                      1                      2                      3
                      A                      A                      A
 Frequencies --     28.7346                32.5877                37.3263
 Red. masses --      7.9587                 6.1572                 5.8984
 Frc consts  --      0.0039                 0.0039                 0.0048
 IR Inten    --      0.8601                 0.4210                 3.3726

                      4                      5                      6
                      A                      A                      A
 Frequencies --     49.7714                68.3000                92.2112
 Red. masses --      4.4739                 5.8824                 2.3140
 Frc consts  --      0.0065                 0.0162                 0.0116
 IR Inten    --      5.0173                 0.8862                 5.2224

                      7                      8                      9
                      A                      A                      A
 Frequencies --    118.9882               129.3159               149.1578
 Red. masses --      3.1338                 4.7150                 4.5123
 Frc consts  --      0.0261                 0.0465                 0.0591
 IR Inten    --      2.2657                 1.3476                 0.1952

                     10                     11                     12
                      A                      A                      A
 Frequencies --    185.8036               233.2767               248.0233
 Red. masses --      5.2132                 4.7280                 5.3148
 Frc consts  --      0.1060                 0.1516                 0.1926
 IR Inten    --      8.0335                 3.6317                 7.5868

                     13                     14                     15
                      A                      A                      A
 Frequencies --    280.1290               313.4332               337.5827
 Red. masses --      3.2042                 4.5003                 1.7813
 Frc consts  --      0.1481                 0.2605                 0.1196
 IR Inten    --      3.5284                 5.3326                47.1842

                     16                     17                     18
                      A                      A                      A
 Frequencies --    346.8978               406.5744               432.3976
 Red. masses --      1.4733                 2.9062                 2.8507
 Frc consts  --      0.1045                 0.2830                 0.3140
 IR Inten    --    129.0004                25.0691                25.7864

                     19                     20                     21
                      A                      A                      A
 Frequencies --    447.5732               493.0593               507.6830
 Red. masses --      3.1830                 2.6021                 2.8601
 Frc consts  --      0.3757                 0.3727                 0.4343
 IR Inten    --     37.8667                58.8055                 5.0955

                     22                     23                     24
                      A                      A                      A
 Frequencies --    521.5383               534.5900               585.5842
 Red. masses --      3.5745                 2.3941                 3.7739
 Frc consts  --      0.5729                 0.4031                 0.7625
 IR Inten    --     30.1079                91.9190                 6.9062

                     25                     26                     27
                      A                      A                      A
 Frequencies --    593.8264               609.7523               647.9160
 Red. masses --      2.0886                 1.9006                 3.0848
 Frc consts  --      0.4339                 0.4163                 0.7630
 IR Inten    --    105.3430                49.2641                46.9894

                     28                     29                     30
                      A                      A                      A
 Frequencies --    675.1222               742.0534               778.2763
 Red. masses --      2.6015                 3.2684                 1.4189
 Frc consts  --      0.6986                 1.0604                 0.5064
 IR Inten    --     27.9773                 6.0436                17.2075

                     31                     32                     33
                      A                      A                      A
 Frequencies --    799.0051               818.1018               851.0164
 Red. masses --      1.3594                 2.0633                 3.5553
 Frc consts  --      0.5113                 0.8136                 1.5171
 IR Inten    --     20.0817                72.4079                13.6412

                     34                     35                     36
                      A                      A                      A
 Frequencies --    862.0956               908.0846               927.0449
 Red. masses --      2.4870                 1.2523                 2.4701
 Frc consts  --      1.0890                 0.6084                 1.2507
 IR Inten    --     16.4712                 3.7458                 2.8179

                     37                     38                     39
                      A                      A                      A
 Frequencies --    944.7718               985.0297              1013.4631
 Red. masses --      3.2373                 2.6721                 2.2483
 Frc consts  --      1.7025                 1.5276                 1.3605
 IR Inten    --     15.8574                41.4332                40.3904

                     40                     41                     42
                      A                      A                      A
 Frequencies --   1019.2510              1027.8538              1055.0115
 Red. masses --      2.2468                 1.8698                 1.3630
 Frc consts  --      1.3752                 1.1639                 0.8939
 IR Inten    --     24.6786                12.3892                 0.9471

                     43                     44                     45
                      A                      A                      A
 Frequencies --   1076.9995              1084.9208              1126.3042
 Red. masses --      1.8556                 5.1774                 2.8425
 Frc consts  --      1.2681                 3.5905                 2.1245
 IR Inten    --     50.8447                90.7906                 4.0129

                     46                     47                     48
                      A                      A                      A
 Frequencies --   1154.0450              1170.0365              1219.3194
 Red. masses --      1.5413                 1.7780                 1.4007
 Frc consts  --      1.2095                 1.4341                 1.2270
 IR Inten    --      2.5667               161.4971               107.5829

                     49                     50                     51
                      A                      A                      A
 Frequencies --   1228.8414              1247.9344              1267.9069
 Red. masses --      1.3140                 1.4494                 1.5807
 Frc consts  --      1.1691                 1.3299                 1.4972
 IR Inten    --     36.2767                15.0928                11.5329

                     52                     53                     54
                      A                      A                      A
 Frequencies --   1294.5507              1317.5920              1334.6656
 Red. masses --      1.7249                 1.2614                 1.5498
 Frc consts  --      1.7031                 1.2902                 1.6265
 IR Inten    --     27.4354                33.2905                33.6721

                     55                     56                     57
                      A                      A                      A
 Frequencies --   1341.4866              1346.2357              1383.9653
 Red. masses --      1.4836                 1.4852                 1.6322
 Frc consts  --      1.5730                 1.5859                 1.8419
 IR Inten    --     12.7372                57.0995                31.7128

                     58                     59                     60
                      A                      A                      A
 Frequencies --   1393.5982              1412.0914              1414.6408
 Red. masses --      1.8448                 1.5580                 2.6921
 Frc consts  --      2.1110                 1.8303                 3.1742
 IR Inten    --     31.0140                47.4182               193.6445

                     61                     62                     63
                      A                      A                      A
 Frequencies --   1444.5689              1464.3861              1473.6681
 Red. masses --      2.3352                 1.7313                 1.1621
 Frc consts  --      2.8711                 2.1874                 1.4869
 IR Inten    --    107.0556                34.2467                30.7166

                     64                     65                     66
                      A                      A                      A
 Frequencies --   1479.6233              1511.4711              1621.9683
 Red. masses --      1.1227                 1.0817                 1.3301
 Frc consts  --      1.4482                 1.4560                 2.0617
 IR Inten    --     18.5722                14.0063                20.2463

                     67                     68                     69
                      A                      A                      A
 Frequencies --   1645.2021              1655.4787              1692.6763
 Red. masses --      5.4506                 6.5561                 5.1745
 Frc consts  --      8.6922                10.5862                 8.7351
 IR Inten    --    133.0785               298.6571               313.7398

                     70                     71                     72
                      A                      A                      A
 Frequencies --   1738.0432              2974.9403              3013.3724
 Red. masses --      4.7757                 1.0723                 1.0552
 Frc consts  --      8.4997                 5.5916                 5.6451
 IR Inten    --    452.6818                61.7361                30.4363

                     73                     74                     75
                      A                      A                      A
 Frequencies --   3017.9929              3034.8004              3064.5595
 Red. masses --      1.0840                 1.0668                 1.1052
 Frc consts  --      5.8170                 5.7890                 6.1152
 IR Inten    --     30.5574                25.2065                19.9351

                     76                     77                     78
                      A                      A                      A
 Frequencies --   3067.9382              3122.3905              3186.9770
 Red. masses --      1.0971                 1.0884                 1.0880
 Frc consts  --      6.0840                 6.2517                 6.5107
 IR Inten    --     10.2370                14.4379                 3.8334

                     79                     80                     81
                      A                      A                      A
 Frequencies --   3200.3201              3219.2174              3518.4806
 Red. masses --      1.0858                 1.0981                 1.0760
 Frc consts  --      6.5520                 6.7050                 7.8485
 IR Inten    --     10.2069                18.6722                 3.2796

                     82                     83                     84
                      A                      A                      A
 Frequencies --   3577.9830              3589.8780              3703.7792
 Red. masses --      1.0467                 1.0750                 1.1000
 Frc consts  --      7.8952                 8.1623                 8.8908
 IR Inten    --     52.7574                16.9024                25.5859

 - Thermochemistry -
 -------------------
 Temperature   298.150 Kelvin.  Pressure   1.00000 Atm.
 Atom     1 has atomic number  7 and mass  14.00307

 Molecular mass:   238.10007 amu.
 Principal axes and moments of inertia in atomic units:
                           1         2         3
     Eigenvalues --  3881.986426158.145248686.79250
           X            0.99982  -0.00913   0.01660
           Y            0.00891   0.99987   0.01330
           Z           -0.01671  -0.01315   0.99977
 This molecule is an asymmetric top.
 Rotational symmetry number  1.
 Warning -- assumption of classical behavior for rotation
           may cause significant error
 Rotational temperatures (Kelvin)      0.02231     0.01406     0.00997
 Rotational constants (GHZ):           0.46490     0.29307     0.20776
 Zero-point vibrational energy     632065.3 (Joules/Mol)
                                  151.06723 (Kcal/Mol)
 Warning -- explicit consideration of  26 degrees of freedom as
           vibrations may cause significant error
 Vibrational temperatures:     41.34    46.89    53.70    71.61    98.27
          (Kelvin)            132.67   171.20   186.06   214.60   267.33
                              335.63   356.85   403.04   450.96   485.71
                              499.11   584.97   622.12   643.96   709.40
                              730.44   750.38   769.16   842.53   854.38
                              877.30   932.21   971.35  1067.65  1119.77
                             1149.59  1177.07  1224.42  1240.36  1306.53
                             1333.81  1359.32  1417.24  1458.15  1466.47
                             1478.85  1517.93  1549.56  1560.96  1620.50
                             1660.41  1683.42  1754.33  1768.03  1795.50
                             1824.24  1862.57  1895.72  1920.29  1930.10
                             1936.93  1991.22  2005.08  2031.68  2035.35
                             2078.41  2106.92  2120.28  2128.85  2174.67
                             2333.65  2367.08  2381.86  2435.38  2500.66
                             4280.28  4335.57  4342.22  4366.40  4409.22
                             4414.08  4492.42  4585.35  4604.55  4631.74
                             5062.31  5147.92  5165.03  5328.91

 Zero-point correction=                           0.240741 (Hartree/Particle)
 Thermal correction to Energy=                    0.257285
 Thermal correction to Enthalpy=                  0.258229
 Thermal correction to Gibbs Free Energy=         0.193878
 Sum of electronic and zero-point Energies=          -1077.770923
 Sum of electronic and thermal Energies=             -1077.754379
 Sum of electronic and thermal Enthalpies=           -1077.753435
 Sum of electronic and thermal Free Energies=        -1077.817785

                     E (Thermal)             CV                S
                      KCal/Mol        Cal/Mol-Kelvin    Cal/Mol-Kelvin
 Total                  161.449             60.317            135.437
 Electronic               0.000              0.000              0.000
 Translational            0.889              2.981             42.304
 Rotational               0.889              2.981             33.695
 Vibrational            159.671             54.355             59.438
 Vibration     1          0.593              1.984              5.915
 Vibration     2          0.594              1.983              5.665
 Vibration     3          0.594              1.982              5.396
 Vibration     4          0.595              1.978              4.826
 Vibration     5          0.598              1.969              4.202
 Vibration     6          0.602              1.955              3.613
 Vibration     7          0.609              1.933              3.117
 Vibration     8          0.612              1.924              2.956
 Vibration     9          0.618              1.904              2.683
 Vibration    10          0.632              1.859              2.269
 Vibration    11          0.654              1.790              1.854
 Vibration    12          0.662              1.766              1.745
 Vibration    13          0.680              1.710              1.533
 Vibration    14          0.701              1.648              1.344
 Vibration    15          0.718              1.600              1.224
 Vibration    16          0.725              1.582              1.180
 Vibration    17          0.771              1.456              0.939
 Vibration    18          0.793              1.400              0.851
 Vibration    19          0.807              1.366              0.803
 Vibration    20          0.849              1.265              0.676
 Vibration    21          0.863              1.233              0.639
 Vibration    22          0.877              1.202              0.606
 Vibration    23          0.890              1.174              0.577
 Vibration    24          0.943              1.063              0.475
 Vibration    25          0.951              1.045              0.460
 Vibration    26          0.969              1.011              0.433

 Optimization completed.
    -- Stationary point found.
 Normal termination of Gaussian 16 at Thu May 18 23:20:05 2023.
