 Gaussian 16, Revision A.03,
 Gaussian 16:  ES64L-G16RevA.03 25-Dec-2016

 -----------------------------
 # opt freq b3lyp/6-31g(2df,p)
 -----------------------------

 -------------------
 Title Card Required
 -------------------
 Symbolic Z-matrix:
 Charge =  0 Multiplicity = 1

 SCF Done:  E(RB3LYP) =  -887.353542237     A.U. after   15 cycles
 SCF Done:  E(RB3LYP) =  -887.381762829     A.U. after   15 cycles
 SCF Done:  E(RB3LYP) =  -887.394163157     A.U. after   15 cycles
 SCF Done:  E(RB3LYP) =  -887.402229709     A.U. after   14 cycles
 SCF Done:  E(RB3LYP) =  -887.404677280     A.U. after   14 cycles
 SCF Done:  E(RB3LYP) =  -887.405711967     A.U. after   13 cycles
 SCF Done:  E(RB3LYP) =  -887.406020009     A.U. after   12 cycles
 SCF Done:  E(RB3LYP) =  -887.406152308     A.U. after   12 cycles
 SCF Done:  E(RB3LYP) =  -887.406208615     A.U. after   12 cycles
 SCF Done:  E(RB3LYP) =  -887.406223706     A.U. after   10 cycles
 SCF Done:  E(RB3LYP) =  -887.406229906     A.U. after    9 cycles
 SCF Done:  E(RB3LYP) =  -887.406230631     A.U. after    8 cycles
 SCF Done:  E(RB3LYP) =  -887.406230788     A.U. after    7 cycles
 SCF Done:  E(RB3LYP) =  -887.406230815     A.U. after    7 cycles
 Optimization completed.
    -- Stationary point found.
 Normal termination of Gaussian 16 at Tue May 16 01:45:50 2023.

 ----------------------------------------------------------------------
 #N Geom=AllCheck Guess=TCheck SCRF=Check GenChk RB3LYP/6-31G(2df,p) Fr
 eq
 ----------------------------------------------------------------------

 Structure from the checkpoint file:  "NdCSC1dNNdCC2NdCC2dC1.chk"
 -------------------
 Title Card Required
 -------------------
 Charge =  0 Multiplicity = 1

                         Standard orientation:
 ---------------------------------------------------------------------
 Center     Atomic      Atomic             Coordinates (Angstroms)
 Number     Number       Type             X           Y           Z
 ---------------------------------------------------------------------
      1          7           0       -4.254004   -0.856474    0.254831
      2          6           0       -3.074232   -0.467817    0.494851
      3         16           0       -2.162537    0.396276   -0.761543
      4          6           0       -0.523911    0.442708   -0.018925
      5          7           0        0.009199    1.616513    0.045242
      6          7           0        1.200044    1.873936    0.673293
      7          6           0        2.283001    1.257995    0.399898
      8          6           0        2.365272    0.082376   -0.531742
      9          7           0        3.475105   -0.919167   -0.256649
     10          6           0        2.600645   -1.808241    0.099945
     11          6           0        1.401953   -0.976623   -0.034400
     12          6           0        0.111440   -0.846728    0.285989
     13          1           0       -4.668521   -1.289703    1.080952
     14          1           0       -2.534674   -0.569448    1.444194
     15          1           0        3.171378    1.553741    0.955856
     16          1           0        2.308606    0.354712   -1.590113
     17          1           0        2.802137   -2.828104    0.417832
     18          1           0       -0.475747   -1.667282    0.685253
 ---------------------------------------------------------------------

 SCF Done:  E(RB3LYP) =  -887.406230815     A.U. after    1 cycles

 The electronic state is 1-A.
 Alpha  occ. eigenvalues --  -88.90136 -14.38000 -14.37912 -14.36180 -14.33014
 Alpha  occ. eigenvalues --  -10.27783 -10.26895 -10.26229 -10.25084 -10.24988
 Alpha  occ. eigenvalues --  -10.23957 -10.23344  -7.96446  -5.92888  -5.92541
 Alpha  occ. eigenvalues --   -5.92056  -1.02397  -0.99163  -0.92216  -0.87937
 Alpha  occ. eigenvalues --   -0.81551  -0.77297  -0.72688  -0.67690  -0.64427
 Alpha  occ. eigenvalues --   -0.59043  -0.56828  -0.55364  -0.53779  -0.51961
 Alpha  occ. eigenvalues --   -0.51247  -0.47778  -0.45273  -0.43929  -0.41715
 Alpha  occ. eigenvalues --   -0.38450  -0.37651  -0.36800  -0.36251  -0.32846
 Alpha  occ. eigenvalues --   -0.30210  -0.29701  -0.28112  -0.27128  -0.25721
 Alpha  occ. eigenvalues --   -0.24205
 Alpha virt. eigenvalues --   -0.09299  -0.04539  -0.02013  -0.00392   0.02554
 Alpha virt. eigenvalues --    0.04545   0.07274   0.08677   0.09077   0.11331
 Alpha virt. eigenvalues --    0.12077   0.13110   0.13936   0.16179   0.17802

 Mulliken charges:
               1
     1  N   -0.393150
     2  C    0.023612
     3  S   -0.025044
     4  C    0.209773
     5  N   -0.215074
     6  N   -0.122915
     7  C    0.024437
     8  C   -0.125725
     9  N   -0.207689
    10  C   -0.078953
    11  C    0.307362
    12  C   -0.304973
    13  H    0.238571
    14  H    0.121499
    15  H    0.143397
    16  H    0.136008
    17  H    0.141836
    18  H    0.127027
 Sum of Mulliken charges =  -0.00000

 Dipole moment (field-independent basis, Debye):
    X=              1.3320    Y=             -3.4072    Z=              1.9390  Tot=              4.1404
 Quadrupole moment (field-independent basis, Debye-Ang):
   XX=            -85.1716   YY=            -75.5461   ZZ=            -72.3979
   XY=              2.3918   XZ=             -7.6542   YZ=             -5.1687

  Exact polarizability: 185.779   9.479 104.383  -2.705  -4.829  74.382
 Approx polarizability: 297.186  20.901 189.496  -6.911  -5.726 129.280

                      1                      2                      3
                      A                      A                      A
 Frequencies --     24.5131                77.1534               103.8740
 Red. masses --      6.3343                 5.5867                 3.6339
 Frc consts  --      0.0022                 0.0196                 0.0231
 IR Inten    --      2.0109                 2.0265                19.4003

                      4                      5                      6
                      A                      A                      A
 Frequencies --    161.2858               201.8808               231.1252
 Red. masses --      4.0298                 5.2722                 6.0012
 Frc consts  --      0.0618                 0.1266                 0.1889
 IR Inten    --      5.5418                 0.9426                11.3139

                      7                      8                      9
                      A                      A                      A
 Frequencies --    282.1497               317.3665               337.8011
 Red. masses --      5.5569                 5.3596                 5.4939
 Frc consts  --      0.2606                 0.3181                 0.3694
 IR Inten    --      5.4842                 1.7216                 6.5750

                     10                     11                     12
                      A                      A                      A
 Frequencies --    371.0402               403.3624               469.8072
 Red. masses --      6.6679                 6.8011                 5.9709
 Frc consts  --      0.5409                 0.6520                 0.7765
 IR Inten    --      4.6142                 8.7007                15.1821

                     13                     14                     15
                      A                      A                      A
 Frequencies --    540.3869               577.3716               647.5061
 Red. masses --      8.2606                 4.9715                 6.1669
 Frc consts  --      1.4213                 0.9765                 1.5234
 IR Inten    --      0.7819                 5.2703                 6.4865

                     16                     17                     18
                      A                      A                      A
 Frequencies --    713.3350               721.0800               749.5426
 Red. masses --      1.3851                 3.6107                 3.5487
 Frc consts  --      0.4153                 1.1061                 1.1746
 IR Inten    --     46.6554               104.0300                77.7916

                     19                     20                     21
                      A                      A                      A
 Frequencies --    816.0947               850.8996               871.5561
 Red. masses --      4.4532                 2.8130                 1.4686
 Frc consts  --      1.7475                 1.2000                 0.6573
 IR Inten    --      1.3560                10.5922                11.6177

                     22                     23                     24
                      A                      A                      A
 Frequencies --    885.6757               934.7611               937.9098
 Red. masses --      3.4088                 3.0213                 2.6735
 Frc consts  --      1.5755                 1.5554                 1.3857
 IR Inten    --     22.4136                34.1908                 4.3098

                     25                     26                     27
                      A                      A                      A
 Frequencies --    957.8100              1007.9200              1054.6250
 Red. masses --      2.6136                 2.6835                 1.2409
 Frc consts  --      1.4127                 1.6062                 0.8132
 IR Inten    --     30.0499                15.2152                 7.3780

                     28                     29                     30
                      A                      A                      A
 Frequencies --   1069.6882              1082.6009              1137.9032
 Red. masses --      2.8026                 2.1653                 2.8224
 Frc consts  --      1.8894                 1.4952                 2.1532
 IR Inten    --     14.4792                 9.1287                29.4537

                     31                     32                     33
                      A                      A                      A
 Frequencies --   1165.0262              1178.3732              1260.9676
 Red. masses --      1.1086                 1.7174                 1.5535
 Frc consts  --      0.8865                 1.4050                 1.4554
 IR Inten    --     55.8416                14.4461                13.3448

                     34                     35                     36
                      A                      A                      A
 Frequencies --   1283.3802              1344.9187              1351.6991
 Red. masses --      1.6696                 1.7799                 1.3286
 Frc consts  --      1.6202                 1.8968                 1.4303
 IR Inten    --      7.9364                23.3660                 5.6587

                     37                     38                     39
                      A                      A                      A
 Frequencies --   1368.8384              1544.0503              1578.1905
 Red. masses --      1.3498                11.3646                 6.9803
 Frc consts  --      1.4901                15.9635                10.2434
 IR Inten    --      9.8426                29.7508                 7.2673

                     40                     41                     42
                      A                      A                      A
 Frequencies --   1668.5117              1672.5350              1732.8668
 Red. masses --      7.2558                10.4963                 9.2969
 Frc consts  --     11.9014                17.2996                16.4483
 IR Inten    --    240.3130                 4.2991                 8.5244

                     43                     44                     45
                      A                      A                      A
 Frequencies --   3032.7820              3070.2443              3148.6866
 Red. masses --      1.0902                 1.0841                 1.0895
 Frc consts  --      5.9079                 6.0212                 6.3642
 IR Inten    --     22.6432                 6.7879                 7.5888

                     46                     47                     48
                      A                      A                      A
 Frequencies --   3172.2860              3181.1305              3471.2620
 Red. masses --      1.0983                 1.0907                 1.0758
 Frc consts  --      6.5118                 6.5031                 7.6379
 IR Inten    --     26.1808                 2.0434                 4.1551

 - Thermochemistry -
 -------------------
 Temperature   298.150 Kelvin.  Pressure   1.00000 Atm.
 Atom     1 has atomic number  7 and mass  14.00307

 Molecular mass:   178.03132 amu.
 Principal axes and moments of inertia in atomic units:
                           1         2         3
     Eigenvalues --   910.235643710.334284311.21913
           X            0.99993   0.00740  -0.00893
           Y           -0.00759   0.99973  -0.02217
           Z            0.00877   0.02223   0.99971
 This molecule is an asymmetric top.
 Rotational symmetry number  1.
 Warning -- assumption of classical behavior for rotation
           may cause significant error
 Rotational temperatures (Kelvin)      0.09516     0.02334     0.02009
 Rotational constants (GHZ):           1.98272     0.48641     0.41862
 Zero-point vibrational energy     327560.1 (Joules/Mol)
                                   78.28875 (Kcal/Mol)
 Warning -- explicit consideration of  14 degrees of freedom as
           vibrations may cause significant error
 Vibrational temperatures:     35.27   111.01   149.45   232.05   290.46
          (Kelvin)            332.54   405.95   456.62   486.02   533.84
                              580.35   675.95   777.50   830.71   931.62
                             1026.33  1037.47  1078.42  1174.18  1224.25
                             1253.97  1274.29  1344.91  1349.44  1378.07
                             1450.17  1517.37  1539.04  1557.62  1637.19
                             1676.21  1695.42  1814.25  1846.50  1935.04
                             1944.79  1969.45  2221.54  2270.66  2400.62
                             2406.40  2493.21  4363.50  4417.40  4530.26
                             4564.21  4576.94  4994.37

 Zero-point correction=                           0.124761 (Hartree/Particle)
 Thermal correction to Energy=                    0.135243
 Thermal correction to Enthalpy=                  0.136187
 Thermal correction to Gibbs Free Energy=         0.087106
 Sum of electronic and zero-point Energies=           -887.281470
 Sum of electronic and thermal Energies=              -887.270988
 Sum of electronic and thermal Enthalpies=            -887.270043
 Sum of electronic and thermal Free Energies=         -887.319125

                     E (Thermal)             CV                S
                      KCal/Mol        Cal/Mol-Kelvin    Cal/Mol-Kelvin
 Total                   84.866             38.646            103.301
 Electronic               0.000              0.000              0.000
 Translational            0.889              2.981             41.437
 Rotational               0.889              2.981             31.055
 Vibrational             83.089             32.684             30.809
 Vibration     1          0.593              1.985              6.230
 Vibration     2          0.599              1.964              3.962
 Vibration     3          0.605              1.946              3.380
 Vibration     4          0.622              1.890              2.535
 Vibration     5          0.639              1.837              2.116
 Vibration     6          0.653              1.793              1.870
 Vibration     7          0.681              1.707              1.521
 Vibration     8          0.704              1.640              1.324
 Vibration     9          0.718              1.600              1.223
 Vibration    10          0.743              1.532              1.075
 Vibration    11          0.769              1.463              0.950
 Vibration    12          0.827              1.317              0.738
 Vibration    13          0.895              1.161              0.564
 Vibration    14          0.934              1.080              0.490

                           ! Non-Optimized Parameters !
 Normal termination of Gaussian 16 at Tue May 16 02:26:16 2023.
