 Gaussian 16, Revision A.03,
 Gaussian 16:  ES64L-G16RevA.03 25-Dec-2016

 -----------------------------
 # opt freq b3lyp/6-31g(2df,p)
 -----------------------------

 -------------------
 Title Card Required
 -------------------
 Symbolic Z-matrix:
 Charge =  0 Multiplicity = 1

 SCF Done:  E(RB3LYP) =  -876.389336241     A.U. after   15 cycles
 SCF Done:  E(RB3LYP) =  -876.402904065     A.U. after   13 cycles
 SCF Done:  E(RB3LYP) =  -876.405944843     A.U. after   13 cycles
 SCF Done:  E(RB3LYP) =  -876.407567025     A.U. after   12 cycles
 SCF Done:  E(RB3LYP) =  -876.408428329     A.U. after   13 cycles
 SCF Done:  E(RB3LYP) =  -876.409604194     A.U. after   11 cycles
 SCF Done:  E(RB3LYP) =  -876.410373183     A.U. after   12 cycles
 SCF Done:  E(RB3LYP) =  -876.410651774     A.U. after   12 cycles
 SCF Done:  E(RB3LYP) =  -876.410684016     A.U. after   11 cycles
 SCF Done:  E(RB3LYP) =  -876.410733974     A.U. after   10 cycles
 SCF Done:  E(RB3LYP) =  -876.413992336     A.U. after   12 cycles
 SCF Done:  E(RB3LYP) =  -876.414015633     A.U. after   12 cycles
 SCF Done:  E(RB3LYP) =  -876.414018964     A.U. after    9 cycles
 SCF Done:  E(RB3LYP) =  -876.414020028     A.U. after    8 cycles
 SCF Done:  E(RB3LYP) =  -876.414020486     A.U. after    7 cycles
 SCF Done:  E(RB3LYP) =  -876.414020858     A.U. after    7 cycles
 SCF Done:  E(RB3LYP) =  -876.414021147     A.U. after    7 cycles
 SCF Done:  E(RB3LYP) =  -876.414021387     A.U. after    7 cycles
 SCF Done:  E(RB3LYP) =  -876.414021523     A.U. after    7 cycles
 Optimization completed.
    -- Stationary point found.
 Normal termination of Gaussian 16 at Thu May 18 01:30:00 2023.

 ----------------------------------------------------------------------
 #N Geom=AllCheck Guess=TCheck SCRF=Check GenChk RB3LYP/6-31G(2df,p) Fr
 eq
 ----------------------------------------------------------------------

 Structure from the checkpoint file:  "NdCSCCC1dC2CdC2CC1dO.chk"
 -------------------
 Title Card Required
 -------------------
 Charge =  0 Multiplicity = 1

                         Standard orientation:
 ---------------------------------------------------------------------
 Center     Atomic      Atomic             Coordinates (Angstroms)
 Number     Number       Type             X           Y           Z
 ---------------------------------------------------------------------
      1          7           0        4.369445   -0.940068   -0.499926
      2          6           0        3.199200   -0.630754   -0.125138
      3         16           0        2.801323    1.034624    0.330337
      4          6           0        1.011143    0.829228    0.651184
      5          6           0        0.146319    0.755135   -0.620644
      6          6           0       -1.249793    0.294428   -0.315800
      7          6           0       -2.432770    0.949946   -0.296626
      8          6           0       -3.777105    1.360759   -0.208634
      9          6           0       -3.569007    0.087724    0.059181
     10          6           0       -3.072762   -1.275394    0.302712
     11          6           0       -1.511030   -1.116017    0.050596
     12          8           0       -0.714414   -2.021054    0.154670
     13          1           0        4.423824   -1.939418   -0.701781
     14          1           0        2.345219   -1.314627   -0.030862
     15          1           0        0.724219    1.683815    1.269461
     16          1           0        0.878440   -0.071498    1.254681
     17          1           0        0.606472    0.039703   -1.311740
     18          1           0        0.139959    1.725539   -1.124060
     19          1           0       -4.482030    2.173418   -0.302736
     20          1           0       -3.514192   -2.010442   -0.377174
     21          1           0       -3.279045   -1.621903    1.319948
 ---------------------------------------------------------------------

 SCF Done:  E(RB3LYP) =  -876.414021523     A.U. after    1 cycles

 The electronic state is 1-A.
 Alpha  occ. eigenvalues --  -88.87138 -19.12534 -14.30412 -10.27498 -10.26870
 Alpha  occ. eigenvalues --  -10.25838 -10.24135 -10.23950 -10.23898 -10.21326
 Alpha  occ. eigenvalues --  -10.19669 -10.19307  -7.93511  -5.89945  -5.89601
 Alpha  occ. eigenvalues --   -5.89124  -1.03638  -0.96099  -0.89519  -0.81857
 Alpha  occ. eigenvalues --   -0.79508  -0.75752  -0.69664  -0.62445  -0.59730
 Alpha  occ. eigenvalues --   -0.56670  -0.54944  -0.53587  -0.50101  -0.49583
 Alpha  occ. eigenvalues --   -0.48721  -0.46114  -0.43279  -0.42639  -0.41751
 Alpha  occ. eigenvalues --   -0.40819  -0.39203  -0.37773  -0.37312  -0.35230
 Alpha  occ. eigenvalues --   -0.33662  -0.32185  -0.29349  -0.25568  -0.25003
 Alpha  occ. eigenvalues --   -0.23506  -0.22079
 Alpha virt. eigenvalues --   -0.04537  -0.01923   0.00681   0.03747   0.07013
 Alpha virt. eigenvalues --    0.07206   0.07966   0.09359   0.10117   0.11267
 Alpha virt. eigenvalues --    0.12294   0.13857   0.15037   0.15384   0.16354

 Mulliken charges:
               1
     1  N   -0.405693
     2  C    0.023065
     3  S   -0.082537
     4  C   -0.221141
     5  C   -0.298974
     6  C   -0.065647
     7  C    0.250882
     8  C   -0.422568
     9  C    0.312811
    10  C   -0.489826
    11  C    0.351474
    12  O   -0.351482
    13  H    0.230675
    14  H    0.134895
    15  H    0.127622
    16  H    0.150034
    17  H    0.123419
    18  H    0.112072
    19  H    0.172147
    20  H    0.174708
    21  H    0.174065
 Sum of Mulliken charges =   0.00000

 Dipole moment (field-independent basis, Debye):
    X=             -7.4040    Y=              0.6321    Z=              0.3263  Tot=              7.4381
 Quadrupole moment (field-independent basis, Debye-Ang):
   XX=            -77.6458   YY=            -74.0601   ZZ=            -75.8660
   XY=             -7.5893   XZ=              0.2515   YZ=              0.8491

  Exact polarizability: 169.413 -22.039 123.869  -7.573   0.052  72.460
 Approx polarizability: 239.694 -51.016 225.659 -13.725  -2.130 121.063

                      1                      2                      3
                      A                      A                      A
 Frequencies --     26.9626                34.7134                80.7297
 Red. masses --      5.4605                 6.2181                 3.9824
 Frc consts  --      0.0023                 0.0044                 0.0153
 IR Inten    --      1.7484                 1.5963                 2.5354

                      4                      5                      6
                      A                      A                      A
 Frequencies --    100.1838               124.3046               160.3151
 Red. masses --      4.1137                 3.8877                 2.6085
 Frc consts  --      0.0243                 0.0354                 0.0395
 IR Inten    --      0.1588                 4.9802                25.9657

                      7                      8                      9
                      A                      A                      A
 Frequencies --    213.1169               255.0558               278.0889
 Red. masses --      3.0011                 3.6358                 3.8615
 Frc consts  --      0.0803                 0.1394                 0.1759
 IR Inten    --      1.7287                 2.8118                 2.5723

                     10                     11                     12
                      A                      A                      A
 Frequencies --    313.5654               376.5462               431.0095
 Red. masses --      2.9927                 2.6348                 5.4841
 Frc consts  --      0.1734                 0.2201                 0.6002
 IR Inten    --      5.6831                 0.3578                 4.4024

                     13                     14                     15
                      A                      A                      A
 Frequencies --    457.3401               473.5621               571.5644
 Red. masses --      6.1348                 5.0289                 4.8790
 Frc consts  --      0.7560                 0.6645                 0.9391
 IR Inten    --      4.7668                 2.5827                42.5447

                     16                     17                     18
                      A                      A                      A
 Frequencies --    612.6693               635.1178               661.3898
 Red. masses --      5.1852                 4.6794                 4.8282
 Frc consts  --      1.1467                 1.1121                 1.2444
 IR Inten    --     11.2978                 2.8387                 4.5059

                     19                     20                     21
                      A                      A                      A
 Frequencies --    700.6855               724.1065               738.6287
 Red. masses --      1.8290                 1.3192                 1.4212
 Frc consts  --      0.5291                 0.4075                 0.4568
 IR Inten    --     32.0108                53.5393                18.0221

                     22                     23                     24
                      A                      A                      A
 Frequencies --    743.2706               763.0312               780.5335
 Red. masses --      3.4131                 9.4204                 2.3142
 Frc consts  --      1.1109                 3.2315                 0.8307
 IR Inten    --     74.6867                59.6831                 1.0914

                     25                     26                     27
                      A                      A                      A
 Frequencies --    861.2454               900.3305               914.6631
 Red. masses --      3.3752                 3.1212                 3.3676
 Frc consts  --      1.4750                 1.4907                 1.6599
 IR Inten    --      9.9454                12.1691                11.9469

                     28                     29                     30
                      A                      A                      A
 Frequencies --   1009.6957              1020.7892              1066.9019
 Red. masses --      2.7596                 3.5824                 1.2449
 Frc consts  --      1.6576                 2.1994                 0.8349
 IR Inten    --      7.3733                 4.2238                 4.4708

                     31                     32                     33
                      A                      A                      A
 Frequencies --   1089.5091              1102.3535              1133.1074
 Red. masses --      1.3309                 2.0531                 1.1921
 Frc consts  --      0.9308                 1.4699                 0.9018
 IR Inten    --     15.2139                30.0407                 0.2341

                     34                     35                     36
                      A                      A                      A
 Frequencies --   1180.4966              1189.8520              1231.8605
 Red. masses --      1.2759                 1.2478                 1.6945
 Frc consts  --      1.0476                 1.0408                 1.5150
 IR Inten    --      5.6343                56.2093                 3.2142

                     37                     38                     39
                      A                      A                      A
 Frequencies --   1255.6260              1276.2964              1322.1572
 Red. masses --      1.3295                 3.0625                 1.1521
 Frc consts  --      1.2350                 2.9392                 1.1866
 IR Inten    --     25.3297                26.1155                 0.5598

                     40                     41                     42
                      A                      A                      A
 Frequencies --   1356.2469              1381.8761              1400.4503
 Red. masses --      1.4646                 1.3250                 1.0872
 Frc consts  --      1.5873                 1.4908                 1.2563
 IR Inten    --      8.1361                24.0922                14.8800

                     43                     44                     45
                      A                      A                      A
 Frequencies --   1461.8860              1475.9897              1639.1942
 Red. masses --      1.0787                 1.0983                10.9264
 Frc consts  --      1.3583                 1.4097                17.2977
 IR Inten    --      4.8611                 5.5923               174.3083

                     46                     47                     48
                      A                      A                      A
 Frequencies --   1669.0356              1772.9384              1855.3215
 Red. masses --      7.0113                10.9637                 8.6839
 Frc consts  --     11.5076                20.3047                17.6117
 IR Inten    --    213.1238               303.0293                11.0037

                     49                     50                     51
                      A                      A                      A
 Frequencies --   3025.4798              3041.2397              3069.1193
 Red. masses --      1.0904                 1.0629                 1.0586
 Frc consts  --      5.8804                 5.7920                 5.8749
 IR Inten    --     16.5596                11.5999                14.5456

                     52                     53                     54
                      A                      A                      A
 Frequencies --   3069.7162              3093.2237              3112.1428
 Red. masses --      1.0603                 1.0997                 1.1014
 Frc consts  --      5.8867                 6.1995                 6.2854
 IR Inten    --      0.0237                 5.1809                 0.0555

                     55                     56                     57
                      A                      A                      A
 Frequencies --   3124.5216              3238.0239              3464.5215
 Red. masses --      1.1064                 1.1152                 1.0755
 Frc consts  --      6.3641                 6.8888                 7.6059
 IR Inten    --      7.1133                 0.0551                 1.1994

 - Thermochemistry -
 -------------------
 Temperature   298.150 Kelvin.  Pressure   1.00000 Atm.
 Atom     1 has atomic number  7 and mass  14.00307

 Molecular mass:   179.04049 amu.
 Principal axes and moments of inertia in atomic units:
                           1         2         3
     Eigenvalues --   904.134804702.065935392.56477
           X            0.99997  -0.00699  -0.00292
           Y            0.00698   0.99997  -0.00284
           Z            0.00294   0.00282   0.99999
 This molecule is an asymmetric top.
 Rotational symmetry number  1.
 Warning -- assumption of classical behavior for rotation
           may cause significant error
 Rotational temperatures (Kelvin)      0.09580     0.01842     0.01606
 Rotational constants (GHZ):           1.99610     0.38382     0.33467
 Zero-point vibrational energy     413084.3 (Joules/Mol)
                                   98.72952 (Kcal/Mol)
 Warning -- explicit consideration of  16 degrees of freedom as
           vibrations may cause significant error
 Vibrational temperatures:     38.79    49.94   116.15   144.14   178.85
          (Kelvin)            230.66   306.63   366.97   400.11   451.15
                              541.77   620.13   658.01   681.35   822.35
                              881.49   913.79   951.59  1008.13  1041.83
                             1062.72  1069.40  1097.83  1123.01  1239.14
                             1295.37  1316.00  1452.73  1468.69  1535.03
                             1567.56  1586.04  1630.29  1698.47  1711.93
                             1772.37  1806.57  1836.31  1902.29  1951.34
                             1988.21  2014.94  2103.33  2123.62  2358.43
                             2401.37  2550.86  2669.39  4352.99  4375.67
                             4415.78  4416.64  4450.46  4477.68  4495.49
                             4658.79  4984.67

 Zero-point correction=                           0.157336 (Hartree/Particle)
 Thermal correction to Energy=                    0.169380
 Thermal correction to Enthalpy=                  0.170324
 Thermal correction to Gibbs Free Energy=         0.117166
 Sum of electronic and zero-point Energies=           -876.256686
 Sum of electronic and thermal Energies=              -876.244642
 Sum of electronic and thermal Enthalpies=            -876.243698
 Sum of electronic and thermal Free Energies=         -876.296856

                     E (Thermal)             CV                S
                      KCal/Mol        Cal/Mol-Kelvin    Cal/Mol-Kelvin
 Total                  106.287             43.762            111.881
 Electronic               0.000              0.000              0.000
 Translational            0.889              2.981             41.454
 Rotational               0.889              2.981             31.506
 Vibrational            104.510             37.800             38.921
 Vibration     1          0.593              1.984              6.041
 Vibration     2          0.594              1.983              5.540
 Vibration     3          0.600              1.962              3.873
 Vibration     4          0.604              1.949              3.451
 Vibration     5          0.610              1.929              3.032
 Vibration     6          0.622              1.891              2.546
 Vibration     7          0.644              1.821              2.017
 Vibration     8          0.665              1.754              1.695
 Vibration     9          0.679              1.714              1.545
 Vibration    10          0.701              1.648              1.343
 Vibration    11          0.747              1.520              1.053
 Vibration    12          0.792              1.403              0.855
 Vibration    13          0.815              1.345              0.774
 Vibration    14          0.830              1.309              0.728
 Vibration    15          0.928              1.093              0.501
 Vibration    16          0.972              1.005              0.428

                           ! Non-Optimized Parameters !
 Normal termination of Gaussian 16 at Thu May 18 02:18:11 2023.
