 Gaussian 16, Revision A.03,
 Gaussian 16:  ES64L-G16RevA.03 25-Dec-2016

 -----------------------------
 # opt freq b3lyp/6-31g(2df,p)
 -----------------------------

 -------------------
 Title Card Required
 -------------------
 Symbolic Z-matrix:
 Charge =  0 Multiplicity = 1

 SCF Done:  E(RB3LYP) =  -1173.42529122     A.U. after   31 cycles
 SCF Done:  E(RB3LYP) =  -1173.47598405     A.U. after   22 cycles
 SCF Done:  E(RB3LYP) =  -1173.49711601     A.U. after   19 cycles
 SCF Done:  E(RB3LYP) =  -1173.50050546     A.U. after   16 cycles
 SCF Done:  E(RB3LYP) =  -1173.50112699     A.U. after   18 cycles
 SCF Done:  E(RB3LYP) =  -1173.50140726     A.U. after   18 cycles
 SCF Done:  E(RB3LYP) =  -1173.50149483     A.U. after   15 cycles
 SCF Done:  E(RB3LYP) =  -1173.50161575     A.U. after   12 cycles
 SCF Done:  E(RB3LYP) =  -1173.50164201     A.U. after   13 cycles
 SCF Done:  E(RB3LYP) =  -1173.50165807     A.U. after   13 cycles
 SCF Done:  E(RB3LYP) =  -1173.50169863     A.U. after   11 cycles
 SCF Done:  E(RB3LYP) =  -1173.50170011     A.U. after   11 cycles
 SCF Done:  E(RB3LYP) =  -1173.50170123     A.U. after   11 cycles
 SCF Done:  E(RB3LYP) =  -1173.50170216     A.U. after   11 cycles
 SCF Done:  E(RB3LYP) =  -1173.50170314     A.U. after   10 cycles
 SCF Done:  E(RB3LYP) =  -1173.50170424     A.U. after   10 cycles
 SCF Done:  E(RB3LYP) =  -1173.50170532     A.U. after   11 cycles
 SCF Done:  E(RB3LYP) =  -1173.50170621     A.U. after   11 cycles
 SCF Done:  E(RB3LYP) =  -1173.50170675     A.U. after   10 cycles
 Optimization completed.
    -- Stationary point found.
 Normal termination of Gaussian 16 at Wed May 17 17:13:10 2023.

 ----------------------------------------------------------------------
 #N Geom=AllCheck Guess=TCheck SCRF=Check GenChk RB3LYP/6-31G(2df,p) Fr
 eq
 ----------------------------------------------------------------------

 Structure from the checkpoint file:  "NdNC1dC2CqCdSrdCdCdC2S1.chk"
 -------------------
 Title Card Required
 -------------------
 Charge =  0 Multiplicity = 1

                         Standard orientation:
 ---------------------------------------------------------------------
 Center     Atomic      Atomic             Coordinates (Angstroms)
 Number     Number       Type             X           Y           Z
 ---------------------------------------------------------------------
      1          7           0       -2.111463    2.473721    0.000779
      2          7           0       -0.959323    1.972160    0.000619
      3          6           0       -0.961464    0.609532   -0.000197
      4          6           0       -0.058901   -0.396233   -0.000757
      5          6           0        1.348555   -1.007956    0.000178
      6          6           0        2.583864   -0.337834    0.000374
      7         16           0        2.741543    1.300553   -0.000522
      8          6           0        1.036226   -2.369100    0.000928
      9          6           0       -0.238497   -2.611376    0.000651
     10          6           0       -1.029908   -1.527304   -0.000534
     11         16           0       -2.495187   -0.537285   -0.000504
     12          1           0       -1.985338    3.497806    0.001446
     13          1           0        3.459902   -0.989636    0.001316
 ---------------------------------------------------------------------

 SCF Done:  E(RB3LYP) =  -1173.50170675     A.U. after    1 cycles

 The electronic state is 1-A.
 Alpha  occ. eigenvalues --  -88.92971 -88.85360 -14.43261 -14.41964 -10.30058
 Alpha  occ. eigenvalues --  -10.28271 -10.26490 -10.25046 -10.25038 -10.24990
 Alpha  occ. eigenvalues --  -10.24705  -7.98985  -7.91861  -5.95446  -5.95196
 Alpha  occ. eigenvalues --   -5.94512  -5.88156  -5.88084  -5.87444  -1.07767
 Alpha  occ. eigenvalues --   -0.94794  -0.86684  -0.81679  -0.78599  -0.72591
 Alpha  occ. eigenvalues --   -0.69856  -0.64068  -0.59464  -0.55335  -0.51849
 Alpha  occ. eigenvalues --   -0.50702  -0.47739  -0.47039  -0.44901  -0.42811
 Alpha  occ. eigenvalues --   -0.42184  -0.37668  -0.35765  -0.35203  -0.31888
 Alpha  occ. eigenvalues --   -0.28800  -0.27477  -0.27375  -0.22435  -0.22164
 Alpha virt. eigenvalues --   -0.15180  -0.15124  -0.08938  -0.04337  -0.02601
 Alpha virt. eigenvalues --    0.03246   0.06570   0.08569   0.09517   0.10075
 Alpha virt. eigenvalues --    0.11619   0.15224   0.18162   0.20065   0.22362

 Mulliken charges:
               1
     1  N   -0.259959
     2  N   -0.179774
     3  C    0.177497
     4  C    0.277344
     5  C    0.068153
     6  C   -0.084938
     7  S   -0.299161
     8  C   -0.060721
     9  C   -0.167151
    10  C    0.203217
    11  S   -0.083079
    12  H    0.273346
    13  H    0.135225
 Sum of Mulliken charges =  -0.00000

 Dipole moment (field-independent basis, Debye):
    X=             -1.9629    Y=             -0.5418    Z=              0.0013  Tot=              2.0363
 Quadrupole moment (field-independent basis, Debye-Ang):
   XX=            -81.4274   YY=            -67.4395   ZZ=            -75.7185
   XY=             -7.8897   XZ=              0.0007   YZ=              0.0056

  Exact polarizability: 204.914  11.168 184.043   0.002  -0.008  54.146
 Approx polarizability: 451.193  75.783 533.385   0.005  -0.053  94.672

                      1                      2                      3
                      A                      A                      A
 Frequencies --     35.8092                92.8727               117.6566
 Red. masses --      9.4737                14.0679                11.7714
 Frc consts  --      0.0072                 0.0715                 0.0960
 IR Inten    --      1.2043                 1.5197                 0.2973

                      4                      5                      6
                      A                      A                      A
 Frequencies --    147.9759               173.8059               227.5074
 Red. masses --      8.2456                 5.1852                10.6913
 Frc consts  --      0.1064                 0.0923                 0.3260
 IR Inten    --      3.5768                 0.8201                 0.1311

                      7                      8                      9
                      A                      A                      A
 Frequencies --    255.1346               292.8716               373.6160
 Red. masses --     12.0932                13.4106                 4.9337
 Frc consts  --      0.4638                 0.6777                 0.4058
 IR Inten    --     66.2606                 5.0031                 5.0142

                     10                     11                     12
                      A                      A                      A
 Frequencies --    427.6582               457.5987               490.2138
 Red. masses --      4.4232                12.1667                10.6902
 Frc consts  --      0.4766                 1.5010                 1.5136
 IR Inten    --      4.6355                86.7502                44.1239

                     13                     14                     15
                      A                      A                      A
 Frequencies --    494.1435               502.4355               596.9209
 Red. masses --     10.1885                 9.9108                10.3084
 Frc consts  --      1.4658                 1.4741                 2.1641
 IR Inten    --      0.0114                 0.6496                11.2618

                     16                     17                     18
                      A                      A                      A
 Frequencies --    670.1387               719.7664               772.8633
 Red. masses --      7.7320                10.8123                 8.5057
 Frc consts  --      2.0458                 3.3003                 2.9934
 IR Inten    --      2.3934                 1.3299                 6.3302

                     19                     20                     21
                      A                      A                      A
 Frequencies --    910.5292               926.3585               971.6990
 Red. masses --      1.4970                 1.3745                 4.6952
 Frc consts  --      0.7312                 0.6949                 2.6120
 IR Inten    --     15.7847                34.3448                57.5502

                     22                     23                     24
                      A                      A                      A
 Frequencies --   1068.3166              1092.8746              1125.2390
 Red. masses --      8.7658                 8.3845                 7.1783
 Frc consts  --      5.8944                 5.9002                 5.3551
 IR Inten    --      1.8623                18.7534                80.0542

                     25                     26                     27
                      A                      A                      A
 Frequencies --   1292.7167              1427.7320              1464.1960
 Red. masses --      1.5159                 5.7497                 1.5428
 Frc consts  --      1.4925                 6.9054                 1.9487
 IR Inten    --     13.2108               161.5576                76.7677

                     28                     29                     30
                      A                      A                      A
 Frequencies --   1517.2792              1536.2925              1647.1085
 Red. masses --     10.3564                 4.9813                11.5758
 Frc consts  --     14.0472                 6.9269                18.5031
 IR Inten    --     55.0410                27.2646                74.6202

                     31                     32                     33
                      A                      A                      A
 Frequencies --   1685.4226              3102.4659              3320.5596
 Red. masses --     11.9094                 1.0871                 1.0747
 Frc consts  --     19.9324                 6.1652                 6.9814
 IR Inten    --    148.4361                13.2080                 1.0645

 - Thermochemistry -
 -------------------
 Temperature   298.150 Kelvin.  Pressure   1.00000 Atm.
 Atom     1 has atomic number  7 and mass  14.00307

 Molecular mass:   177.96594 amu.
 Principal axes and moments of inertia in atomic units:
                           1         2         3
     Eigenvalues --  1476.363882394.293063870.65649
           X            0.99923  -0.03935   0.00000
           Y            0.03935   0.99923   0.00001
           Z           -0.00000  -0.00001   1.00000
 This molecule is an asymmetric top.
 Rotational symmetry number  1.
 Warning -- assumption of classical behavior for rotation
           may cause significant error
 Rotational temperatures (Kelvin)      0.05867     0.03618     0.02238
 Rotational constants (GHZ):           1.22242     0.75377     0.46626
 Zero-point vibrational energy     179067.7 (Joules/Mol)
                                   42.79820 (Kcal/Mol)
 Warning -- explicit consideration of  15 degrees of freedom as
           vibrations may cause significant error
 Vibrational temperatures:     51.52   133.62   169.28   212.90   250.07
          (Kelvin)            327.33   367.08   421.38   537.55   615.30
                              658.38   705.31   710.96   722.89   858.84
                              964.18  1035.58  1111.98  1310.05  1332.82
                             1398.06  1537.07  1572.40  1618.97  1859.93
                             2054.19  2106.65  2183.03  2210.38  2369.82
                             2424.95  4463.76  4777.54

 Zero-point correction=                           0.068203 (Hartree/Particle)
 Thermal correction to Energy=                    0.078321
 Thermal correction to Enthalpy=                  0.079265
 Thermal correction to Gibbs Free Energy=         0.031059
 Sum of electronic and zero-point Energies=          -1173.433503
 Sum of electronic and thermal Energies=             -1173.423386
 Sum of electronic and thermal Enthalpies=           -1173.422442
 Sum of electronic and thermal Free Energies=        -1173.470648

                     E (Thermal)             CV                S
                      KCal/Mol        Cal/Mol-Kelvin    Cal/Mol-Kelvin
 Total                   49.147             35.092            101.459
 Electronic               0.000              0.000              0.000
 Translational            0.889              2.981             41.436
 Rotational               0.889              2.981             30.993
 Vibrational             47.370             29.131             29.029
 Vibration     1          0.594              1.982              5.478
 Vibration     2          0.602              1.954              3.599
 Vibration     3          0.608              1.935              3.139
 Vibration     4          0.617              1.905              2.698
 Vibration     5          0.627              1.875              2.394
 Vibration     6          0.651              1.799              1.899
 Vibration     7          0.666              1.754              1.695
 Vibration     8          0.688              1.687              1.457
 Vibration     9          0.745              1.526              1.065
 Vibration    10          0.789              1.410              0.866
 Vibration    11          0.816              1.344              0.773
 Vibration    12          0.846              1.272              0.683
 Vibration    13          0.850              1.263              0.673
 Vibration    14          0.858              1.245              0.652
 Vibration    15          0.955              1.038              0.455

                           ! Non-Optimized Parameters !
 Normal termination of Gaussian 16 at Wed May 17 17:37:58 2023.
