 Gaussian 16, Revision A.03,
 Gaussian 16:  ES64L-G16RevA.03 25-Dec-2016

 -----------------------------
 # opt freq b3lyp/6-31g(2df,p)
 -----------------------------

 -------------------
 Title Card Required
 -------------------
 Symbolic Z-matrix:
 Charge =  0 Multiplicity = 1

 SCF Done:  E(RB3LYP) =  -630.295208203     A.U. after   15 cycles
 SCF Done:  E(RB3LYP) =  -630.319849695     A.U. after   12 cycles
 SCF Done:  E(RB3LYP) =  -630.333932262     A.U. after   13 cycles
 SCF Done:  E(RB3LYP) =  -630.345137015     A.U. after   13 cycles
 SCF Done:  E(RB3LYP) =  -630.358881294     A.U. after   15 cycles
 SCF Done:  E(RB3LYP) =  -630.366371716     A.U. after   14 cycles
 SCF Done:  E(RB3LYP) =  -630.380304575     A.U. after   14 cycles
 SCF Done:  E(RB3LYP) =  -630.384002620     A.U. after   13 cycles
 SCF Done:  E(RB3LYP) =  -630.386093972     A.U. after   12 cycles
 SCF Done:  E(RB3LYP) =  -630.386901172     A.U. after   12 cycles
 SCF Done:  E(RB3LYP) =  -630.435862965     A.U. after   12 cycles
 SCF Done:  E(RB3LYP) =  -630.436537823     A.U. after   12 cycles
 SCF Done:  E(RB3LYP) =  -630.436860672     A.U. after   12 cycles
 SCF Done:  E(RB3LYP) =  -630.436917412     A.U. after   10 cycles
 SCF Done:  E(RB3LYP) =  -630.436944717     A.U. after   10 cycles
 SCF Done:  E(RB3LYP) =  -630.436954156     A.U. after   10 cycles
 SCF Done:  E(RB3LYP) =  -630.436960214     A.U. after   10 cycles
 SCF Done:  E(RB3LYP) =  -630.436962355     A.U. after    9 cycles
 SCF Done:  E(RB3LYP) =  -630.436962611     A.U. after    7 cycles
 Optimization completed.
    -- Stationary point found.
 Normal termination of Gaussian 16 at Sat May 20 00:50:17 2023.

 ----------------------------------------------------------------------
 #N Geom=AllCheck Guess=TCheck SCRF=Check GenChk RB3LYP/6-31G(2df,p) Fr
 eq
 ----------------------------------------------------------------------

 Structure from the checkpoint file:  "NN1CCCdc2ccccc2dCCdCN1.chk"
 -------------------
 Title Card Required
 -------------------
 Charge =  0 Multiplicity = 1

                         Standard orientation:
 ---------------------------------------------------------------------
 Center     Atomic      Atomic             Coordinates (Angstroms)
 Number     Number       Type             X           Y           Z
 ---------------------------------------------------------------------
      1          7           0       -4.477818   -0.606669    0.049965
      2          7           0       -3.141073   -0.116690   -0.314889
      3          6           0       -2.184127   -1.230171   -0.055829
      4          6           0       -0.849045   -1.139657   -0.870970
      5          6           0        0.401021   -1.430296   -0.082822
      6          6           0        1.529001   -0.689953    0.131766
      7          6           0        2.722437   -1.397882    0.587205
      8          6           0        3.961867   -0.897876    0.385927
      9          6           0        4.142015    0.387002   -0.247874
     10          6           0        3.072099    1.167380   -0.522997
     11          6           0        1.726249    0.752861   -0.171288
     12          6           0        0.744512    1.693133   -0.023899
     13          6           0       -0.531165    1.366903    0.562060
     14          6           0       -1.746363    1.668957    0.090126
     15          7           0       -2.912861    1.003492    0.556391
     16          1           0       -4.847101   -1.006450   -0.813616
     17          1           0       -5.007453    0.254483    0.179003
     18          1           0       -2.714448   -2.144352   -0.331999
     19          1           0       -1.984477   -1.309413    1.024534
     20          1           0       -0.788661   -0.187814   -1.390480
     21          1           0       -0.897260   -1.909067   -1.654178
     22          1           0        0.460673   -2.461276    0.269050
     23          1           0        2.588882   -2.390815    1.006584
     24          1           0        4.836655   -1.473218    0.670738
     25          1           0        5.146925    0.736327   -0.460450
     26          1           0        3.201498    2.166515   -0.928941
     27          1           0        0.942329    2.706964   -0.365269
     28          1           0       -0.489098    0.606350    1.342407
     29          1           0       -1.901664    2.292388   -0.785047
     30          1           0       -2.755547    0.656049    1.508965
 ---------------------------------------------------------------------

 SCF Done:  E(RB3LYP) =  -630.436962611     A.U. after    1 cycles

 The electronic state is 1-A.
 Alpha  occ. eigenvalues --  -14.37397 -14.34966 -14.33400 -10.20966 -10.20636
 Alpha  occ. eigenvalues --  -10.19748 -10.19540 -10.19198 -10.18957 -10.18631
 Alpha  occ. eigenvalues --  -10.18293 -10.18290 -10.18134 -10.18078 -10.18071
 Alpha  occ. eigenvalues --   -1.00430  -0.87832  -0.85581  -0.79902  -0.79510
 Alpha  occ. eigenvalues --   -0.76475  -0.73859  -0.71900  -0.65807  -0.64294
 Alpha  occ. eigenvalues --   -0.59895  -0.58736  -0.57329  -0.54288  -0.50999
 Alpha  occ. eigenvalues --   -0.50409  -0.48616  -0.47691  -0.46830  -0.45586
 Alpha  occ. eigenvalues --   -0.43366  -0.42763  -0.41471  -0.41329  -0.40499
 Alpha  occ. eigenvalues --   -0.39314  -0.37569  -0.36969  -0.35744  -0.35188
 Alpha  occ. eigenvalues --   -0.33420  -0.32775  -0.32333  -0.29642  -0.27177
 Alpha  occ. eigenvalues --   -0.26824  -0.23235  -0.20389  -0.17819
 Alpha virt. eigenvalues --   -0.06113   0.00117   0.02684   0.05762   0.08280
 Alpha virt. eigenvalues --    0.10276   0.10376   0.10781   0.12179   0.13549
 Alpha virt. eigenvalues --    0.13651   0.14337   0.15054   0.15896   0.16430

 Mulliken charges:
               1
     1  N   -0.467650
     2  N   -0.111179
     3  C   -0.097169
     4  C   -0.275895
     5  C   -0.140087
     6  C    0.178985
     7  C   -0.160618
     8  C   -0.112122
     9  C   -0.117596
    10  C   -0.155330
    11  C    0.192241
    12  C   -0.190108
    13  C   -0.131089
    14  C   -0.027672
    15  N   -0.270878
    16  H    0.238044
    17  H    0.242567
    18  H    0.111053
    19  H    0.091061
    20  H    0.131353
    21  H    0.105031
    22  H    0.086331
    23  H    0.094338
    24  H    0.093085
    25  H    0.093824
    26  H    0.094326
    27  H    0.096786
    28  H    0.093398
    29  H    0.101449
    30  H    0.213519
 Sum of Mulliken charges =  -0.00000

 Dipole moment (field-independent basis, Debye):
    X=              0.0010    Y=             -0.5916    Z=             -0.5462  Tot=              0.8052
 Quadrupole moment (field-independent basis, Debye-Ang):
   XX=            -84.1532   YY=            -84.8221   ZZ=            -89.3850
   XY=              1.3360   XZ=              3.2049   YZ=             -1.2722

  Exact polarizability: 256.681  -6.130 154.526   2.460  -8.169  89.234
 Approx polarizability: 390.880 -22.112 292.922   5.599 -15.669 153.737

                      1                      2                      3
                      A                      A                      A
 Frequencies --     73.1033                93.5895               113.0988
 Red. masses --      4.2058                 2.6483                 2.3100
 Frc consts  --      0.0132                 0.0137                 0.0174
 IR Inten    --      1.0804                 2.3847                12.8753

                      4                      5                      6
                      A                      A                      A
 Frequencies --    138.3515               159.8622               191.1041
 Red. masses --      2.9635                 2.1290                 3.0878
 Frc consts  --      0.0334                 0.0321                 0.0664
 IR Inten    --      1.2792                11.4112                10.2784

                      7                      8                      9
                      A                      A                      A
 Frequencies --    204.3662               265.7068               278.0621
 Red. masses --      3.0157                 2.9905                 3.6022
 Frc consts  --      0.0742                 0.1244                 0.1641
 IR Inten    --      3.9717                 1.8870                 6.8379

                     10                     11                     12
                      A                      A                      A
 Frequencies --    306.0718               329.1559               372.1142
 Red. masses --      3.6666                 2.9156                 3.1316
 Frc consts  --      0.2024                 0.1861                 0.2555
 IR Inten    --      2.5539                 2.7118                 2.3719

                     13                     14                     15
                      A                      A                      A
 Frequencies --    407.9271               431.5973               448.4871
 Red. masses --      3.3734                 3.4006                 2.2505
 Frc consts  --      0.3307                 0.3732                 0.2667
 IR Inten    --      2.9813                 8.4406                 1.3193

                     16                     17                     18
                      A                      A                      A
 Frequencies --    467.8865               496.0464               513.6607
 Red. masses --      3.0893                 3.3442                 3.5710
 Frc consts  --      0.3985                 0.4848                 0.5551
 IR Inten    --      6.1333                 7.5851                 9.7688

                     19                     20                     21
                      A                      A                      A
 Frequencies --    561.6283               572.1011               608.8255
 Red. masses --      3.6999                 4.0873                 5.3502
 Frc consts  --      0.6876                 0.7882                 1.1684
 IR Inten    --      4.7636                 0.5952                 2.6955

                     22                     23                     24
                      A                      A                      A
 Frequencies --    632.6759               704.3960               738.2442
 Red. masses --      3.2355                 3.0379                 1.3922
 Frc consts  --      0.7631                 0.8881                 0.4470
 IR Inten    --      9.4497                 0.6678                15.7954

                     25                     26                     27
                      A                      A                      A
 Frequencies --    754.0635               768.9064               818.6641
 Red. masses --      3.1799                 2.2264                 1.4288
 Frc consts  --      1.0653                 0.7755                 0.5642
 IR Inten    --      1.0971                27.0520                 4.3384

                     28                     29                     30
                      A                      A                      A
 Frequencies --    857.4144               872.3423               877.7409
 Red. masses --      2.3550                 2.0336                 1.7385
 Frc consts  --      1.0200                 0.9118                 0.7892
 IR Inten    --     18.6544                21.7108                23.5667

                     31                     32                     33
                      A                      A                      A
 Frequencies --    886.8128               909.9064               949.1451
 Red. masses --      1.6331                 2.6215                 2.1427
 Frc consts  --      0.7567                 1.2788                 1.1373
 IR Inten    --     12.0018                32.9006                39.3089

                     34                     35                     36
                      A                      A                      A
 Frequencies --    959.8350               973.6326               982.3720
 Red. masses --      1.5674                 1.3068                 1.5233
 Frc consts  --      0.8508                 0.7299                 0.8661
 IR Inten    --      2.8853                 1.0354                33.3156

                     37                     38                     39
                      A                      A                      A
 Frequencies --    983.4090              1002.5502              1011.6619
 Red. masses --      2.4573                 2.5870                 2.9542
 Frc consts  --      1.4002                 1.5320                 1.7814
 IR Inten    --     42.6879                 4.1246                 1.7393

                     40                     41                     42
                      A                      A                      A
 Frequencies --   1040.3126              1077.6256              1085.8200
 Red. masses --      2.2128                 2.8699                 2.1236
 Frc consts  --      1.4110                 1.9636                 1.4751
 IR Inten    --     16.5652                15.5085                45.4364

                     43                     44                     45
                      A                      A                      A
 Frequencies --   1135.5856              1162.8843              1171.1283
 Red. masses --      2.4778                 1.5474                 1.3874
 Frc consts  --      1.8826                 1.2329                 1.1212
 IR Inten    --      2.1111                21.8551                 8.2851

                     46                     47                     48
                      A                      A                      A
 Frequencies --   1181.3238              1188.7176              1207.7957
 Red. masses --      2.2836                 2.0332                 1.1667
 Frc consts  --      1.8777                 1.6927                 1.0028
 IR Inten    --     43.3297                 1.9031                 5.3397

                     49                     50                     51
                      A                      A                      A
 Frequencies --   1213.5804              1248.3431              1270.7805
 Red. masses --      1.3913                 1.4938                 1.2156
 Frc consts  --      1.2073                 1.3715                 1.1566
 IR Inten    --     10.3559                 1.6633                 3.9288

                     52                     53                     54
                      A                      A                      A
 Frequencies --   1301.4485              1314.4655              1334.1508
 Red. masses --      1.2974                 1.2573                 1.4475
 Frc consts  --      1.2948                 1.2799                 1.5180
 IR Inten    --      6.3767                 2.3411                 1.0384

                     55                     56                     57
                      A                      A                      A
 Frequencies --   1338.7919              1364.2162              1383.2513
 Red. masses --      1.2291                 1.3749                 1.2925
 Frc consts  --      1.2980                 1.5076                 1.4571
 IR Inten    --      5.6885                16.1873                 0.7637

                     58                     59                     60
                      A                      A                      A
 Frequencies --   1399.8351              1422.9638              1458.2564
 Red. masses --      1.5426                 1.8239                 1.7782
 Frc consts  --      1.7810                 2.1759                 2.2279
 IR Inten    --      2.6231                 2.6026                 0.9059

                     61                     62                     63
                      A                      A                      A
 Frequencies --   1471.6173              1487.7455              1493.9111
 Red. masses --      1.2743                 1.1053                 1.1042
 Frc consts  --      1.6259                 1.4414                 1.4520
 IR Inten    --      2.4523                 2.4714                12.6148

                     64                     65                     66
                      A                      A                      A
 Frequencies --   1565.5187              1585.1776              1616.1420
 Red. masses --      6.5349                 6.6105                 5.7504
 Frc consts  --      9.4364                 9.7868                 8.8492
 IR Inten    --      1.4219                 4.0204                 3.0883

                     67                     68                     69
                      A                      A                      A
 Frequencies --   1632.9452              1674.7363              1692.8873
 Red. masses --      1.0711                 5.6237                 5.5152
 Frc consts  --      1.6828                 9.2932                 9.3126
 IR Inten    --     44.4008                 6.5104                38.1690

                     70                     71                     72
                      A                      A                      A
 Frequencies --   2975.5575              3007.3160              3093.5518
 Red. masses --      1.0718                 1.0746                 1.0912
 Frc consts  --      5.5912                 5.7259                 6.1526
 IR Inten    --     30.5097                21.3850                29.3031

                     73                     74                     75
                      A                      A                      A
 Frequencies --   3108.6505              3109.7875              3147.0677
 Red. masses --      1.0850                 1.0853                 1.0875
 Frc consts  --      6.1778                 6.1841                 6.3462
 IR Inten    --     12.3468                12.6746                10.0161

                     76                     77                     78
                      A                      A                      A
 Frequencies --   3161.0864              3165.1825              3169.3855
 Red. masses --      1.0841                 1.0862                 1.0868
 Frc consts  --      6.3823                 6.4117                 6.4321
 IR Inten    --      2.8890                 0.4411                 6.2123

                     79                     80                     81
                      A                      A                      A
 Frequencies --   3177.0351              3181.7037              3194.8311
 Red. masses --      1.0902                 1.0940                 1.0974
 Frc consts  --      6.4833                 6.5250                 6.5995
 IR Inten    --     10.4053                33.8313                29.7990

                     82                     83                     84
                      A                      A                      A
 Frequencies --   3347.3238              3433.5863              3523.9460
 Red. masses --      1.0723                 1.0517                 1.0897
 Frc consts  --      7.0790                 7.3056                 7.9730
 IR Inten    --     11.4881                 1.9328                 2.4927

 - Thermochemistry -
 -------------------
 Temperature   298.150 Kelvin.  Pressure   1.00000 Atm.
 Atom     1 has atomic number  7 and mass  14.00307

 Molecular mass:   201.12660 amu.
 Principal axes and moments of inertia in atomic units:
                           1         2         3
     Eigenvalues --  1139.541915347.928506177.56832
           X            0.99999   0.00534   0.00097
           Y           -0.00532   0.99986  -0.01590
           Z           -0.00105   0.01589   0.99987
 This molecule is an asymmetric top.
 Rotational symmetry number  1.
 Warning -- assumption of classical behavior for rotation
           may cause significant error
 Rotational temperatures (Kelvin)      0.07601     0.01620     0.01402
 Rotational constants (GHZ):           1.58374     0.33747     0.29214
 Zero-point vibrational energy     664133.7 (Joules/Mol)
                                  158.73177 (Kcal/Mol)
 Warning -- explicit consideration of  21 degrees of freedom as
           vibrations may cause significant error
 Vibrational temperatures:    105.18   134.65   162.72   199.06   230.01
          (Kelvin)            274.96   294.04   382.29   400.07   440.37
                              473.58   535.39   586.92   620.97   645.27
                              673.18   713.70   739.04   808.06   823.13
                              875.96   910.28  1013.47  1062.17  1084.93
                             1106.28  1177.87  1233.63  1255.11  1262.87
                             1275.93  1309.15  1365.61  1380.99  1400.84
                             1413.41  1414.91  1442.45  1455.56  1496.78
                             1550.46  1562.25  1633.85  1673.13  1684.99
                             1699.66  1710.30  1737.75  1746.07  1796.09
                             1828.37  1872.49  1891.22  1919.55  1926.22
                             1962.80  1990.19  2014.05  2047.33  2098.11
                             2117.33  2140.53  2149.40  2252.43  2280.72
                             2325.27  2349.44  2409.57  2435.69  4281.16
                             4326.86  4450.93  4472.65  4474.29  4527.93
                             4548.10  4553.99  4560.04  4571.04  4577.76
                             4596.65  4816.05  4940.16  5070.17

 Zero-point correction=                           0.252955 (Hartree/Particle)
 Thermal correction to Energy=                    0.266075
 Thermal correction to Enthalpy=                  0.267019
 Thermal correction to Gibbs Free Energy=         0.214143
 Sum of electronic and zero-point Energies=           -630.184007
 Sum of electronic and thermal Energies=              -630.170888
 Sum of electronic and thermal Enthalpies=            -630.169943
 Sum of electronic and thermal Free Energies=         -630.222820

                     E (Thermal)             CV                S
                      KCal/Mol        Cal/Mol-Kelvin    Cal/Mol-Kelvin
 Total                  166.965             53.236            111.287
 Electronic               0.000              0.000              0.000
 Translational            0.889              2.981             41.801
 Rotational               0.889              2.981             31.999
 Vibrational            165.187             47.275             37.488
 Vibration     1          0.599              1.967              4.068
 Vibration     2          0.603              1.954              3.584
 Vibration     3          0.607              1.939              3.215
 Vibration     4          0.614              1.915              2.827
 Vibration     5          0.622              1.892              2.551
 Vibration     6          0.634              1.852              2.217
 Vibration     7          0.640              1.834              2.093
 Vibration     8          0.672              1.736              1.624
 Vibration     9          0.679              1.714              1.546
 Vibration    10          0.696              1.662              1.383
 Vibration    11          0.712              1.617              1.264
 Vibration    12          0.744              1.529              1.071
 Vibration    13          0.772              1.453              0.934
 Vibration    14          0.793              1.401              0.853
 Vibration    15          0.808              1.364              0.800
 Vibration    16          0.825              1.321              0.743
 Vibration    17          0.852              1.259              0.668
 Vibration    18          0.869              1.220              0.625
 Vibration    19          0.917              1.114              0.521
 Vibration    20          0.928              1.092              0.500
 Vibration    21          0.968              1.013              0.435

 Optimization completed.
    -- Stationary point found.
 Normal termination of Gaussian 16 at Sat May 20 03:06:17 2023.
