 Gaussian 16, Revision A.03,
 Gaussian 16:  ES64L-G16RevA.03 25-Dec-2016

 -----------------------------
 # opt freq b3lyp/6-31g(2df,p)
 -----------------------------

 -------------------
 Title Card Required
 -------------------
 Symbolic Z-matrix:
 Charge =  0 Multiplicity = 1

 SCF Done:  E(RB3LYP) =  -744.459049326     A.U. after   19 cycles
 SCF Done:  E(RB3LYP) =  -743.951147849     A.U. after   22 cycles
 SCF Done:  E(RB3LYP) =  -744.540153645     A.U. after   17 cycles
 SCF Done:  E(RB3LYP) =  -744.593187044     A.U. after   16 cycles
 SCF Done:  E(RB3LYP) =  -744.674664793     A.U. after   15 cycles
 SCF Done:  E(RB3LYP) =  -744.748204003     A.U. after   15 cycles
 SCF Done:  E(RB3LYP) =  -744.584369020     A.U. after   21 cycles
 SCF Done:  E(RB3LYP) =  -744.813621506     A.U. after   15 cycles
 SCF Done:  E(RB3LYP) =  -744.867911516     A.U. after   13 cycles
 SCF Done:  E(RB3LYP) =  -744.858521267     A.U. after   16 cycles
 SCF Done:  E(RB3LYP) =  -744.962435260     A.U. after    8 cycles
 SCF Done:  E(RB3LYP) =  -744.962443443     A.U. after    8 cycles
 SCF Done:  E(RB3LYP) =  -744.962447615     A.U. after    8 cycles
 SCF Done:  E(RB3LYP) =  -744.962449389     A.U. after    8 cycles
 SCF Done:  E(RB3LYP) =  -744.962450433     A.U. after    8 cycles
 SCF Done:  E(RB3LYP) =  -744.962451130     A.U. after    8 cycles
 SCF Done:  E(RB3LYP) =  -744.962451343     A.U. after    7 cycles
 SCF Done:  E(RB3LYP) =  -744.962451533     A.U. after    7 cycles
 SCF Done:  E(RB3LYP) =  -744.962451655     A.U. after    7 cycles
 Optimization completed.
    -- Stationary point found.
 Normal termination of Gaussian 16 at Fri May 19 18:56:29 2023.

 ----------------------------------------------------------------------
 #N Geom=AllCheck Guess=TCheck SCRF=Check GenChk RB3LYP/6-31G(2df,p) Fr
 eq
 ----------------------------------------------------------------------

 Structure from the checkpoint file:  "NN1NCdCCdC2CCCCdC2CdCCdC1O.chk"
 -------------------
 Title Card Required
 -------------------
 Charge =  0 Multiplicity = 1

                         Standard orientation:
 ---------------------------------------------------------------------
 Center     Atomic      Atomic             Coordinates (Angstroms)
 Number     Number       Type             X           Y           Z
 ---------------------------------------------------------------------
      1          7           0        4.388094   -0.325854    0.676023
      2          7           0        3.463745    0.021752   -0.394313
      3          7           0        2.827308   -1.219210   -0.850562
      4          6           0        1.607880   -1.562178   -0.165041
      5          6           0        0.383576   -1.340010   -0.653791
      6          6           0       -0.919664   -1.664270   -0.027204
      7          6           0       -1.930328   -0.809279    0.247808
      8          6           0       -3.287855   -1.321119    0.674352
      9          6           0       -4.365831   -0.684683   -0.221647
     10          6           0       -4.352722    0.847325   -0.099140
     11          6           0       -2.965563    1.415714    0.022143
     12          6           0       -1.849655    0.677846    0.160068
     13          6           0       -0.482671    1.200406    0.306794
     14          6           0        0.252909    1.791154   -0.653461
     15          6           0        1.693047    1.596414   -0.786013
     16          6           0        2.477898    0.944305    0.099824
     17          8           0        2.294012    0.943497    1.430020
     18          1           0        5.281099    0.093435    0.426658
     19          1           0        4.509969   -1.332420    0.600307
     20          1           0        2.644015   -1.071116   -1.836732
     21          1           0        1.759496   -1.989419    0.822510
     22          1           0        0.326663   -0.842266   -1.620400
     23          1           0       -1.103450   -2.720054    0.170007
     24          1           0       -3.483624   -1.044821    1.720082
     25          1           0       -3.327991   -2.412953    0.610943
     26          1           0       -5.356322   -1.075689    0.034245
     27          1           0       -4.168384   -0.971653   -1.261507
     28          1           0       -4.931839    1.157223    0.785031
     29          1           0       -4.874780    1.301077   -0.952385
     30          1           0       -2.877156    2.499457    0.035677
     31          1           0        0.050739    0.782217    1.154917
     32          1           0       -0.249051    2.163523   -1.544751
     33          1           0        2.076014    1.609489   -1.801954
     34          1           0        3.052357    0.419440    1.771005
 ---------------------------------------------------------------------

 SCF Done:  E(RB3LYP) =  -744.962451655     A.U. after    1 cycles

 The electronic state is 1-A.
 Alpha  occ. eigenvalues --  -19.16142 -14.39294 -14.36413 -14.36292 -10.25480
 Alpha  occ. eigenvalues --  -10.20612 -10.18630 -10.18617 -10.17998 -10.17910
 Alpha  occ. eigenvalues --  -10.17891 -10.17816 -10.17766 -10.17368 -10.17180
 Alpha  occ. eigenvalues --  -10.16016 -10.15774  -1.07185  -1.00206  -0.89096
 Alpha  occ. eigenvalues --   -0.84114  -0.80265  -0.78757  -0.76413  -0.74317
 Alpha  occ. eigenvalues --   -0.72692  -0.67565  -0.66389  -0.61085  -0.59441
 Alpha  occ. eigenvalues --   -0.57753  -0.56308  -0.55031  -0.53782  -0.50625
 Alpha  occ. eigenvalues --   -0.48957  -0.48629  -0.47208  -0.46900  -0.44736
 Alpha  occ. eigenvalues --   -0.44109  -0.43846  -0.41899  -0.40023  -0.39878
 Alpha  occ. eigenvalues --   -0.39322  -0.39200  -0.38305  -0.36803  -0.36342
 Alpha  occ. eigenvalues --   -0.35386  -0.33866  -0.33402  -0.32067  -0.29957
 Alpha  occ. eigenvalues --   -0.29855  -0.28039  -0.27151  -0.24484  -0.24154
 Alpha  occ. eigenvalues --   -0.20591  -0.17158
 Alpha virt. eigenvalues --   -0.02929  -0.00964   0.02467   0.06464   0.07609
 Alpha virt. eigenvalues --    0.08496   0.09603   0.10724   0.12605   0.13412
 Alpha virt. eigenvalues --    0.13907   0.14207   0.14416   0.15096   0.15900

 Mulliken charges:
               1
     1  N   -0.476957
     2  N   -0.172732
     3  N   -0.294684
     4  C   -0.045929
     5  C   -0.101526
     6  C   -0.247478
     7  C    0.265489
     8  C   -0.296520
     9  C   -0.202482
    10  C   -0.249297
    11  C   -0.166221
    12  C    0.214071
    13  C   -0.214208
    14  C   -0.102619
    15  C   -0.218821
    16  C    0.401765
    17  O   -0.396513
    18  H    0.258138
    19  H    0.252200
    20  H    0.242339
    21  H    0.092113
    22  H    0.099543
    23  H    0.090984
    24  H    0.103542
    25  H    0.093657
    26  H    0.091665
    27  H    0.102079
    28  H    0.107502
    29  H    0.103258
    30  H    0.085335
    31  H    0.115399
    32  H    0.078858
    33  H    0.085033
    34  H    0.303017
 Sum of Mulliken charges =  -0.00000

 Dipole moment (field-independent basis, Debye):
    X=              1.2000    Y=             -1.9272    Z=             -0.5989  Tot=              2.3479
 Quadrupole moment (field-independent basis, Debye-Ang):
   XX=            -81.8001   YY=           -103.1019   ZZ=            -98.0447
   XY=             -3.8373   XZ=              1.1725   YZ=             -3.1618

  Exact polarizability: 267.260 -20.105 144.912  -0.500  -9.641 116.195
 Approx polarizability: 392.228 -51.820 238.505  -0.956 -18.742 206.358

                      1                      2                      3
                      A                      A                      A
 Frequencies --     52.9175                75.4746               102.3704
 Red. masses --      3.3353                 4.2972                 3.3272
 Frc consts  --      0.0055                 0.0144                 0.0205
 IR Inten    --      0.4281                 1.4986                 2.8497

                      4                      5                      6
                      A                      A                      A
 Frequencies --    126.6681               149.5751               153.2331
 Red. masses --      3.2873                 3.8972                 3.2037
 Frc consts  --      0.0311                 0.0514                 0.0443
 IR Inten    --      4.5256                 1.2471                 5.6970

                      7                      8                      9
                      A                      A                      A
 Frequencies --    186.1427               203.4744               212.8338
 Red. masses --      2.4100                 1.7770                 3.0499
 Frc consts  --      0.0492                 0.0433                 0.0814
 IR Inten    --      3.4039                 2.1517                 2.0195

                     10                     11                     12
                      A                      A                      A
 Frequencies --    258.0867               284.6630               286.9415
 Red. masses --      2.3871                 2.5737                 3.4523
 Frc consts  --      0.0937                 0.1229                 0.1675
 IR Inten    --      2.9803                 0.4588                 1.2854

                     13                     14                     15
                      A                      A                      A
 Frequencies --    301.0711               338.1976               356.3834
 Red. masses --      3.1698                 2.7234                 3.9878
 Frc consts  --      0.1693                 0.1835                 0.2984
 IR Inten    --      1.7771                 4.7345                 1.9171

                     16                     17                     18
                      A                      A                      A
 Frequencies --    363.9100               394.1963               431.0520
 Red. masses --      3.5148                 2.8247                 3.6809
 Frc consts  --      0.2742                 0.2586                 0.4030
 IR Inten    --      5.9067                 2.5067                13.7038

                     19                     20                     21
                      A                      A                      A
 Frequencies --    448.4964               467.3678               521.1816
 Red. masses --      3.6811                 3.7857                 3.2465
 Frc consts  --      0.4363                 0.4872                 0.5196
 IR Inten    --      0.3951                 1.5272                16.6720

                     22                     23                     24
                      A                      A                      A
 Frequencies --    553.4915               576.9761               620.1961
 Red. masses --      5.1052                 4.2432                 3.2780
 Frc consts  --      0.9215                 0.8323                 0.7429
 IR Inten    --      3.9287                14.3823                 2.2701

                     25                     26                     27
                      A                      A                      A
 Frequencies --    641.8434               699.3683               704.9951
 Red. masses --      3.9679                 2.7432                 3.9868
 Frc consts  --      0.9631                 0.7905                 1.1675
 IR Inten    --     61.6313                 5.2907                15.4447

                     28                     29                     30
                      A                      A                      A
 Frequencies --    719.8569               755.2553               762.3668
 Red. masses --      2.6818                 1.6178                 2.7882
 Frc consts  --      0.8188                 0.5437                 0.9548
 IR Inten    --     15.0139                15.3098                23.9670

                     31                     32                     33
                      A                      A                      A
 Frequencies --    793.6354               809.8405               819.9198
 Red. masses --      2.2380                 1.4330                 1.4651
 Frc consts  --      0.8305                 0.5537                 0.5803
 IR Inten    --     15.9073                41.8120                79.2748

                     34                     35                     36
                      A                      A                      A
 Frequencies --    841.3388               858.4119               863.9079
 Red. masses --      1.7444                 1.9649                 2.5285
 Frc consts  --      0.7275                 0.8530                 1.1118
 IR Inten    --     15.1394                 1.8573                12.9032

                     37                     38                     39
                      A                      A                      A
 Frequencies --    883.5249               890.7395               912.2781
 Red. masses --      2.1448                 2.5335                 1.6117
 Frc consts  --      0.9865                 1.1843                 0.7903
 IR Inten    --      5.0297                 1.8917                11.5899

                     40                     41                     42
                      A                      A                      A
 Frequencies --    930.8497               947.4322               968.4615
 Red. masses --      2.1415                 2.6356                 2.3292
 Frc consts  --      1.0933                 1.3939                 1.2871
 IR Inten    --      4.3663                 7.6460                 9.2909

                     43                     44                     45
                      A                      A                      A
 Frequencies --    977.8509              1032.3620              1043.0616
 Red. masses --      1.2236                 2.8919                 2.1892
 Frc consts  --      0.6894                 1.8159                 1.4033
 IR Inten    --     35.7916                51.0801                78.1570

                     46                     47                     48
                      A                      A                      A
 Frequencies --   1043.5565              1068.5183              1084.7534
 Red. masses --      1.2564                 2.2250                 1.7758
 Frc consts  --      0.8061                 1.4968                 1.2311
 IR Inten    --     16.3904                 5.7265                 3.9245

                     49                     50                     51
                      A                      A                      A
 Frequencies --   1096.2459              1107.9616              1120.4532
 Red. masses --      2.5059                 2.5441                 2.3414
 Frc consts  --      1.7743                 1.8401                 1.7319
 IR Inten    --     18.9527                14.6402                18.2259

                     52                     53                     54
                      A                      A                      A
 Frequencies --   1139.0323              1168.1494              1186.8260
 Red. masses --      2.3175                 1.3056                 2.1538
 Frc consts  --      1.7715                 1.0496                 1.7874
 IR Inten    --      5.2536                 6.7179                 1.6491

                     55                     56                     57
                      A                      A                      A
 Frequencies --   1195.3732              1232.4157              1271.9094
 Red. masses --      1.9954                 1.4881                 1.2209
 Frc consts  --      1.6799                 1.3317                 1.1637
 IR Inten    --     17.7209                 3.0106                 2.0623

                     58                     59                     60
                      A                      A                      A
 Frequencies --   1289.5562              1308.6724              1313.5481
 Red. masses --      1.2413                 1.4126                 1.2437
 Frc consts  --      1.2162                 1.4254                 1.2643
 IR Inten    --     19.5086                 7.1446                10.9236

                     61                     62                     63
                      A                      A                      A
 Frequencies --   1324.1561              1340.1515              1349.9650
 Red. masses --      1.3243                 1.2362                 1.4007
 Frc consts  --      1.3681                 1.3081                 1.5040
 IR Inten    --      7.1888                 5.8922                 3.0022

                     64                     65                     66
                      A                      A                      A
 Frequencies --   1360.7562              1369.0486              1372.1791
 Red. masses --      1.3240                 1.6077                 1.5734
 Frc consts  --      1.4444                 1.7754                 1.7455
 IR Inten    --      9.2865                19.4909                 5.6301

                     67                     68                     69
                      A                      A                      A
 Frequencies --   1383.4875              1392.7889              1409.3100
 Red. masses --      1.4349                 1.6227                 1.8707
 Frc consts  --      1.6182                 1.8546                 2.1891
 IR Inten    --     15.8295                 5.1808               181.4379

                     70                     71                     72
                      A                      A                      A
 Frequencies --   1455.4855              1472.0448              1481.7040
 Red. masses --      1.1478                 1.0903                 1.0914
 Frc consts  --      1.4326                 1.3921                 1.4118
 IR Inten    --      4.3238                 1.8800                 2.8117

                     73                     74                     75
                      A                      A                      A
 Frequencies --   1494.6424              1637.6755              1645.0335
 Red. masses --      1.0972                 6.6130                 1.2362
 Frc consts  --      1.4442                10.4497                 1.9710
 IR Inten    --      1.2200                 2.8840                 4.4023

                     76                     77                     78
                      A                      A                      A
 Frequencies --   1652.4228              1686.8667              1689.8899
 Red. masses --      3.4112                 6.4307                 6.4112
 Frc consts  --      5.4878                10.7813                10.7872
 IR Inten    --    113.2793                11.4588                 9.5398

                     79                     80                     81
                      A                      A                      A
 Frequencies --   1710.4857              2984.3897              3006.1830
 Red. masses --      5.7725                 1.0701                 1.0662
 Frc consts  --      9.9507                 5.6153                 5.6771
 IR Inten    --    110.0903                41.6972                27.2621

                     82                     83                     84
                      A                      A                      A
 Frequencies --   3019.2738              3034.6787              3072.8547
 Red. masses --      1.0814                 1.0676                 1.0968
 Frc consts  --      5.8083                 5.7926                 6.1017
 IR Inten    --     13.2221                61.8796                51.6260

                     85                     86                     87
                      A                      A                      A
 Frequencies --   3076.0890              3120.4920              3132.1847
 Red. masses --      1.1026                 1.0859                 1.0867
 Frc consts  --      6.1468                 6.2301                 6.2813
 IR Inten    --     33.4447                18.3584                13.9068

                     88                     89                     90
                      A                      A                      A
 Frequencies --   3136.9063              3154.5597              3163.3731
 Red. masses --      1.0870                 1.0890                 1.0895
 Frc consts  --      6.3021                 6.3849                 6.4235
 IR Inten    --     17.6593                14.9117                10.7261

                     91                     92                     93
                      A                      A                      A
 Frequencies --   3170.6131              3172.8765              3465.2945
 Red. masses --      1.0873                 1.0855                 1.0569
 Frc consts  --      6.4398                 6.4385                 7.4779
 IR Inten    --      9.5217                 4.9285               246.8628

                     94                     95                     96
                      A                      A                      A
 Frequencies --   3473.6818              3538.9208              3556.2623
 Red. masses --      1.0568                 1.0752                 1.0923
 Frc consts  --      7.5133                 7.9339                 8.1390
 IR Inten    --    128.8145                 4.0466                15.8512

 - Thermochemistry -
 -------------------
 Temperature   298.150 Kelvin.  Pressure   1.00000 Atm.
 Atom     1 has atomic number  7 and mass  14.00307

 Molecular mass:   231.13716 amu.
 Principal axes and moments of inertia in atomic units:
                           1         2         3
     Eigenvalues --  1549.074236667.763327490.56399
           X            1.00000  -0.00177   0.00047
           Y            0.00178   0.99961  -0.02770
           Z           -0.00042   0.02770   0.99962
 This molecule is an asymmetric top.
 Rotational symmetry number  1.
 Warning -- assumption of classical behavior for rotation
           may cause significant error
 Rotational temperatures (Kelvin)      0.05591     0.01299     0.01156
 Rotational constants (GHZ):           1.16505     0.27067     0.24094
 Zero-point vibrational energy     750392.9 (Joules/Mol)
                                  179.34821 (Kcal/Mol)
 Warning -- explicit consideration of  24 degrees of freedom as
           vibrations may cause significant error
 Vibrational temperatures:     76.14   108.59   147.29   182.25   215.21
          (Kelvin)            220.47   267.82   292.75   306.22   371.33
                              409.57   412.84   433.17   486.59   512.76
                              523.59   567.16   620.19   645.29   672.44
                              749.86   796.35   830.14   892.32   923.47
                             1006.24  1014.33  1035.71  1086.64  1096.88
                             1141.86  1165.18  1179.68  1210.50  1235.06
                             1242.97  1271.20  1281.58  1312.56  1339.29
                             1363.14  1393.40  1406.91  1485.34  1500.73
                             1501.45  1537.36  1560.72  1577.25  1594.11
                             1612.08  1638.81  1680.71  1707.58  1719.88
                             1773.17  1829.99  1855.38  1882.89  1889.90
                             1905.17  1928.18  1942.30  1957.82  1969.76
                             1974.26  1990.53  2003.91  2027.68  2094.12
                             2117.94  2131.84  2150.46  2356.25  2366.84
                             2377.47  2427.02  2431.37  2461.01  4293.87
                             4325.23  4344.06  4366.23  4421.15  4425.81
                             4489.69  4506.52  4513.31  4538.71  4551.39
                             4561.81  4565.06  4985.79  4997.85  5091.72
                             5116.67

 Zero-point correction=                           0.285810 (Hartree/Particle)
 Thermal correction to Energy=                    0.301184
 Thermal correction to Enthalpy=                  0.302128
 Thermal correction to Gibbs Free Energy=         0.244338
 Sum of electronic and zero-point Energies=           -744.676642
 Sum of electronic and thermal Energies=              -744.661268
 Sum of electronic and thermal Enthalpies=            -744.660324
 Sum of electronic and thermal Free Energies=         -744.718114

                     E (Thermal)             CV                S
                      KCal/Mol        Cal/Mol-Kelvin    Cal/Mol-Kelvin
 Total                  188.996             62.024            121.629
 Electronic               0.000              0.000              0.000
 Translational            0.889              2.981             42.215
 Rotational               0.889              2.981             32.714
 Vibrational            187.218             56.062             46.699
 Vibration     1          0.596              1.976              4.705
 Vibration     2          0.599              1.965              4.005
 Vibration     3          0.604              1.947              3.409
 Vibration     4          0.611              1.926              2.996
 Vibration     5          0.618              1.903              2.678
 Vibration     6          0.619              1.899              2.632
 Vibration     7          0.632              1.859              2.266
 Vibration     8          0.639              1.835              2.101
 Vibration     9          0.644              1.821              2.019
 Vibration    10          0.667              1.749              1.675
 Vibration    11          0.683              1.702              1.505
 Vibration    12          0.684              1.698              1.492
 Vibration    13          0.693              1.672              1.411
 Vibration    14          0.719              1.599              1.221
 Vibration    15          0.732              1.562              1.138
 Vibration    16          0.737              1.547              1.105
 Vibration    17          0.761              1.483              0.984
 Vibration    18          0.792              1.403              0.855
 Vibration    19          0.808              1.364              0.800
 Vibration    20          0.825              1.322              0.745
 Vibration    21          0.876              1.203              0.607
 Vibration    22          0.909              1.132              0.537
 Vibration    23          0.933              1.081              0.491
 Vibration    24          0.980              0.989              0.416

 Optimization completed.
    -- Stationary point found.
 Normal termination of Gaussian 16 at Fri May 19 22:27:35 2023.
