 Gaussian 16, Revision A.03,
 Gaussian 16:  ES64L-G16RevA.03 25-Dec-2016

 -----------------------------
 # opt freq b3lyp/6-31g(2df,p)
 -----------------------------

 -------------------
 Title Card Required
 -------------------
 Symbolic Z-matrix:
 Charge =  0 Multiplicity = 1

 SCF Done:  E(RB3LYP) =  -1168.92969633     A.U. after   32 cycles
 SCF Done:  E(RB3LYP) =  -1169.08513612     A.U. after   24 cycles
 SCF Done:  E(RB3LYP) =  -1169.29406559     A.U. after   24 cycles
 SCF Done:  E(RB3LYP) =  -1169.42919320     A.U. after   28 cycles
 SCF Done:  E(RB3LYP) =  -1169.57419240     A.U. after   23 cycles
 SCF Done:  E(RB3LYP) =  -1169.73297689     A.U. after   21 cycles
 SCF Done:  E(RB3LYP) =  -1169.86890520     A.U. after   21 cycles
 SCF Done:  E(RB3LYP) =  -1170.01420234     A.U. after   21 cycles
 SCF Done:  E(RB3LYP) =  -1170.04743889     A.U. after   25 cycles
 SCF Done:  E(RB3LYP) =  -1170.17705003     A.U. after   23 cycles
 SCF Done:  E(RB3LYP) =  -1170.50424016     A.U. after    8 cycles
 SCF Done:  E(RB3LYP) =  -1170.50424355     A.U. after    8 cycles
 SCF Done:  E(RB3LYP) =  -1170.50424536     A.U. after    8 cycles
 SCF Done:  E(RB3LYP) =  -1170.50424726     A.U. after    8 cycles
 SCF Done:  E(RB3LYP) =  -1170.50424883     A.U. after    8 cycles
 SCF Done:  E(RB3LYP) =  -1170.50425031     A.U. after    8 cycles
 SCF Done:  E(RB3LYP) =  -1170.50425109     A.U. after    8 cycles
 SCF Done:  E(RB3LYP) =  -1170.50425143     A.U. after    7 cycles
 SCF Done:  E(RB3LYP) =  -1170.50425157     A.U. after    7 cycles
 Optimization completed.
    -- Stationary point found.
 Normal termination of Gaussian 16 at Fri May 19 07:30:40 2023.

 ----------------------------------------------------------------------
 #N Geom=AllCheck Guess=TCheck SCRF=Check GenChk RB3LYP/6-31G(2df,p) Fr
 eq
 ----------------------------------------------------------------------

 Structure from the checkpoint file:  "NN1NdCCONdCc2cqSCdOrccnc21.chk"
 -------------------
 Title Card Required
 -------------------
 Charge =  0 Multiplicity = 1

                         Standard orientation:
 ---------------------------------------------------------------------
 Center     Atomic      Atomic             Coordinates (Angstroms)
 Number     Number       Type             X           Y           Z
 ---------------------------------------------------------------------
      1          7           0       -3.371258   -1.005468   -1.845827
      2          7           0       -2.074851   -0.668513    0.203242
      3          7           0       -2.433391   -0.168297   -1.224638
      4          6           0       -2.932826    0.492746   -0.055073
      5          6           0       -2.381935    1.882918    0.261727
      6          8           0       -1.408475    1.805594    1.297647
      7          7           0       -0.259956    1.100621    0.751127
      8          6           0        0.001857   -0.007325    1.710453
      9          6           0        0.546426   -1.003210    0.691548
     10          6           0        1.740402   -0.903458   -0.218676
     11         16           0        2.294553    0.425002   -1.224199
     12          6           0        2.526639    1.776699   -0.047113
     13          8           0        2.876949    2.860594   -0.405888
     14          6           0        2.242666   -2.160496   -0.290025
     15          6           0        1.411523   -2.996059    0.566516
     16          7           0        0.444144   -2.361547    1.143482
     17          6           0       -0.777496   -0.298646    0.547953
     18          1           0       -2.847140   -1.631004   -2.450750
     19          1           0       -3.854296   -1.583717   -1.154968
     20          1           0       -3.976079    0.314484    0.205961
     21          1           0       -3.167320    2.537127    0.646072
     22          1           0       -1.942217    2.326243   -0.639033
     23          1           0       -0.076282   -0.005059    2.784188
     24          1           0        2.346204    1.477817    0.998144
     25          1           0        3.093240   -2.485403   -0.873121
     26          1           0        1.566896   -4.056619    0.741072
 ---------------------------------------------------------------------

 SCF Done:  E(RB3LYP) =  -1170.50425157     A.U. after    1 cycles

 The electronic state is 1-A.
 Alpha  occ. eigenvalues --  -88.89978 -19.18391 -19.14954 -14.41224 -14.40698
 Alpha  occ. eigenvalues --  -14.38446 -14.36434 -14.33520 -10.29591 -10.28237
 Alpha  occ. eigenvalues --  -10.26687 -10.26509 -10.25604 -10.25140 -10.23957
 Alpha  occ. eigenvalues --  -10.23662 -10.20926  -7.96268  -5.92715  -5.92329
 Alpha  occ. eigenvalues --   -5.91919  -1.10936  -1.06172  -1.06098  -0.99846
 Alpha  occ. eigenvalues --   -0.94979  -0.91486  -0.82312  -0.77832  -0.76468
 Alpha  occ. eigenvalues --   -0.74358  -0.71177  -0.65414  -0.63319  -0.60003
 Alpha  occ. eigenvalues --   -0.59242  -0.57422  -0.55140  -0.54081  -0.52653
 Alpha  occ. eigenvalues --   -0.52177  -0.50782  -0.47855  -0.46716  -0.45775
 Alpha  occ. eigenvalues --   -0.44539  -0.44290  -0.42846  -0.42195  -0.41826
 Alpha  occ. eigenvalues --   -0.40797  -0.40159  -0.38317  -0.36682  -0.35253
 Alpha  occ. eigenvalues --   -0.32293  -0.31108  -0.30779  -0.29545  -0.29186
 Alpha  occ. eigenvalues --   -0.28594  -0.26697  -0.26093  -0.24313  -0.22724
 Alpha virt. eigenvalues --   -0.06893  -0.02134   0.01784   0.03495   0.04461
 Alpha virt. eigenvalues --    0.05880   0.07779   0.08205   0.08794   0.09558
 Alpha virt. eigenvalues --    0.10802   0.11723   0.11969   0.13109   0.13241

 Mulliken charges:
               1
     1  N   -0.417558
     2  N   -0.267744
     3  N   -0.109507
     4  C    0.017199
     5  C   -0.105609
     6  O   -0.247500
     7  N   -0.124829
     8  C   -0.184590
     9  C    0.160784
    10  C    0.081766
    11  S   -0.113141
    12  C    0.150635
    13  O   -0.239685
    14  C   -0.203572
    15  C   -0.028707
    16  N   -0.272618
    17  C    0.482067
    18  H    0.258609
    19  H    0.243306
    20  H    0.108735
    21  H    0.126538
    22  H    0.137375
    23  H    0.162325
    24  H    0.128825
    25  H    0.132802
    26  H    0.124095
 Sum of Mulliken charges =  -0.00000

 Dipole moment (field-independent basis, Debye):
    X=             -2.1481    Y=             -3.2766    Z=              0.7406  Tot=              3.9873
 Quadrupole moment (field-independent basis, Debye-Ang):
   XX=            -95.4497   YY=           -104.7069   ZZ=           -103.3282
   XY=            -11.6644   XZ=              2.5253   YZ=              7.1228

  Exact polarizability: 162.382  -8.030 175.719  -1.835   2.665 121.357
 Approx polarizability: 232.337  -8.402 303.262  -5.455   4.743 220.813

                      1                      2                      3
                      A                      A                      A
 Frequencies --     37.4291                61.4901                71.6780
 Red. masses --      8.5069                 8.8267                 6.4080
 Frc consts  --      0.0070                 0.0197                 0.0194
 IR Inten    --      0.2661                 0.5276                 1.4417

                      4                      5                      6
                      A                      A                      A
 Frequencies --     92.2764               105.5580               180.5776
 Red. masses --      5.9007                 4.9487                 5.8876
 Frc consts  --      0.0296                 0.0325                 0.1131
 IR Inten    --      0.2882                 1.4561                13.7577

                      7                      8                      9
                      A                      A                      A
 Frequencies --    190.3554               198.7702               229.7710
 Red. masses --      5.5177                 4.2407                 2.8615
 Frc consts  --      0.1178                 0.0987                 0.0890
 IR Inten    --      2.3667                12.2108                 2.3863

                     10                     11                     12
                      A                      A                      A
 Frequencies --    271.4251               282.1735               314.5425
 Red. masses --      2.0543                 5.1444                 2.5273
 Frc consts  --      0.0892                 0.2413                 0.1473
 IR Inten    --     16.7248                16.0685                 9.6661

                     13                     14                     15
                      A                      A                      A
 Frequencies --    329.9969               358.4585               377.7363
 Red. masses --      6.4867                 2.1824                 6.0482
 Frc consts  --      0.4162                 0.1652                 0.5085
 IR Inten    --      4.1107                22.2974                 0.5754

                     16                     17                     18
                      A                      A                      A
 Frequencies --    408.2496               428.3754               449.6891
 Red. masses --      5.6355                 5.3369                 4.5863
 Frc consts  --      0.5534                 0.5770                 0.5464
 IR Inten    --      0.3889                 0.6543                 8.8256

                     19                     20                     21
                      A                      A                      A
 Frequencies --    476.8988               508.3584               542.8469
 Red. masses --      7.8066                 5.5023                 7.9480
 Frc consts  --      1.0461                 0.8378                 1.3799
 IR Inten    --      2.5336                13.0139                 3.6650

                     22                     23                     24
                      A                      A                      A
 Frequencies --    603.8424               616.7461               627.1294
 Red. masses --      4.5912                 4.4096                 3.7180
 Frc consts  --      0.9863                 0.9882                 0.8615
 IR Inten    --      8.2088                17.1618                 3.6300

                     25                     26                     27
                      A                      A                      A
 Frequencies --    653.5616               734.6986               757.2091
 Red. masses --      4.7881                 5.0856                 5.7438
 Frc consts  --      1.2050                 1.6174                 1.9404
 IR Inten    --     33.0908                37.4620                72.7561

                     28                     29                     30
                      A                      A                      A
 Frequencies --    784.8952               832.8213               834.4574
 Red. masses --      6.4504                 2.8085                 5.0200
 Frc consts  --      2.3413                 1.1477                 2.0595
 IR Inten    --     12.7288                10.5117                90.1090

                     31                     32                     33
                      A                      A                      A
 Frequencies --    854.8497               871.0727               884.3221
 Red. masses --      4.0648                 2.1591                 2.5334
 Frc consts  --      1.7501                 0.9652                 1.1673
 IR Inten    --     61.6461                 2.9245                 7.6169

                     34                     35                     36
                      A                      A                      A
 Frequencies --    890.0644               920.9860               924.6984
 Red. masses --      2.5253                 1.5730                 2.4859
 Frc consts  --      1.1787                 0.7861                 1.2524
 IR Inten    --    145.5607                 3.6512                29.3570

                     37                     38                     39
                      A                      A                      A
 Frequencies --    930.8044               960.7615               975.6002
 Red. masses --      2.8902                 2.6649                 1.8990
 Frc consts  --      1.4754                 1.4493                 1.0649
 IR Inten    --     30.4635                25.3928                 8.8028

                     40                     41                     42
                      A                      A                      A
 Frequencies --    996.3052              1025.4579              1029.7994
 Red. masses --      2.8336                 3.4041                 2.8147
 Frc consts  --      1.6572                 2.1091                 1.7587
 IR Inten    --      7.0970                25.0645                 5.2067

                     43                     44                     45
                      A                      A                      A
 Frequencies --   1088.1677              1094.3562              1126.8170
 Red. masses --      2.6428                 2.2151                 1.9743
 Frc consts  --      1.8438                 1.5630                 1.4770
 IR Inten    --      4.7558                 5.7121                 2.4677

                     46                     47                     48
                      A                      A                      A
 Frequencies --   1136.0138              1158.1981              1180.7354
 Red. masses --      2.1847                 2.9835                 3.4960
 Frc consts  --      1.6612                 2.3580                 2.8716
 IR Inten    --     15.8474                13.7822                45.9510

                     49                     50                     51
                      A                      A                      A
 Frequencies --   1233.0055              1268.9558              1282.8075
 Red. masses --      5.4995                 1.8090                 1.8821
 Frc consts  --      4.9261                 1.7162                 1.8248
 IR Inten    --     18.9206                 2.2143                 0.6404

                     52                     53                     54
                      A                      A                      A
 Frequencies --   1294.3418              1351.0374              1354.7977
 Red. masses --      1.3098                 1.4410                 1.3330
 Frc consts  --      1.2929                 1.5497                 1.4415
 IR Inten    --      1.6091                42.5726                 5.5623

                     55                     56                     57
                      A                      A                      A
 Frequencies --   1364.7477              1381.4879              1413.3374
 Red. masses --      1.3507                 1.4520                 1.6729
 Frc consts  --      1.4823                 1.6327                 1.9688
 IR Inten    --      5.7498                 1.8531                 6.0965

                     58                     59                     60
                      A                      A                      A
 Frequencies --   1477.3106              1508.7208              1559.1519
 Red. masses --      1.0886                 9.0607                 9.2754
 Frc consts  --      1.3998                12.1515                13.2849
 IR Inten    --      5.8338                60.6551                43.7037

                     61                     62                     63
                      A                      A                      A
 Frequencies --   1626.6976              1673.6473              1810.0245
 Red. masses --      6.6903                 1.0765                10.2703
 Frc consts  --     10.4306                 1.7766                19.8245
 IR Inten    --     14.8491                22.4023               407.7221

                     64                     65                     66
                      A                      A                      A
 Frequencies --   2992.7938              3042.0237              3104.8780
 Red. masses --      1.0926                 1.0624                 1.0916
 Frc consts  --      5.7661                 5.7923                 6.2004
 IR Inten    --     29.9294                27.5590                 6.8985

                     67                     68                     69
                      A                      A                      A
 Frequencies --   3122.9674              3181.5939              3234.5239
 Red. masses --      1.1005                 1.0932                 1.0974
 Frc consts  --      6.3238                 6.5196                 6.7642
 IR Inten    --     25.3202                24.7914                 2.6687

                     70                     71                     72
                      A                      A                      A
 Frequencies --   3277.6395              3419.1617              3551.0182
 Red. masses --      1.1007                 1.0534                 1.0879
 Frc consts  --      6.9667                 7.2556                 8.0821
 IR Inten    --      5.3426                 3.1206                 5.1089

 - Thermochemistry -
 -------------------
 Temperature   298.150 Kelvin.  Pressure   1.00000 Atm.
 Atom     1 has atomic number  7 and mass  14.00307

 Molecular mass:   251.04770 amu.
 Principal axes and moments of inertia in atomic units:
                           1         2         3
     Eigenvalues --  3065.998454751.868896089.97427
           X            0.99952  -0.02871   0.01176
           Y            0.02851   0.99945   0.01719
           Z           -0.01225  -0.01685   0.99978
 This molecule is an asymmetric top.
 Rotational symmetry number  1.
 Warning -- assumption of classical behavior for rotation
           may cause significant error
 Rotational temperatures (Kelvin)      0.02825     0.01823     0.01422
 Rotational constants (GHZ):           0.58863     0.37980     0.29635
 Zero-point vibrational energy     484115.0 (Joules/Mol)
                                  115.70625 (Kcal/Mol)
 Warning -- explicit consideration of  23 degrees of freedom as
           vibrations may cause significant error
 Vibrational temperatures:     53.85    88.47   103.13   132.77   151.87
          (Kelvin)            259.81   273.88   285.99   330.59   390.52
                              405.98   452.56   474.79   515.74   543.48
                              587.38   616.34   647.00   686.15   731.41
                              781.04   868.79   887.36   902.30   940.33
                             1057.07  1089.45  1129.29  1198.24  1200.60
                             1229.94  1253.28  1272.34  1280.60  1325.09
                             1330.43  1339.22  1382.32  1403.67  1433.46
                             1475.41  1481.65  1565.63  1574.53  1621.24
                             1634.47  1666.39  1698.81  1774.02  1825.74
                             1845.67  1862.27  1943.84  1949.25  1963.57
                             1987.65  2033.48  2125.52  2170.71  2243.27
                             2340.46  2408.01  2604.22  4305.96  4376.79
                             4467.23  4493.25  4577.60  4653.76  4715.79
                             4919.41  5109.12

 Zero-point correction=                           0.184390 (Hartree/Particle)
 Thermal correction to Energy=                    0.199095
 Thermal correction to Enthalpy=                  0.200039
 Thermal correction to Gibbs Free Energy=         0.142095
 Sum of electronic and zero-point Energies=          -1170.319862
 Sum of electronic and thermal Energies=             -1170.305157
 Sum of electronic and thermal Enthalpies=           -1170.304213
 Sum of electronic and thermal Free Energies=        -1170.362156

                     E (Thermal)             CV                S
                      KCal/Mol        Cal/Mol-Kelvin    Cal/Mol-Kelvin
 Total                  124.934             56.636            121.953
 Electronic               0.000              0.000              0.000
 Translational            0.889              2.981             42.462
 Rotational               0.889              2.981             32.850
 Vibrational            123.156             50.675             46.641
 Vibration     1          0.594              1.982              5.391
 Vibration     2          0.597              1.973              4.409
 Vibration     3          0.598              1.968              4.107
 Vibration     4          0.602              1.955              3.611
 Vibration     5          0.605              1.945              3.349
 Vibration     6          0.630              1.866              2.322
 Vibration     7          0.634              1.853              2.224
 Vibration     8          0.637              1.842              2.144
 Vibration     9          0.652              1.796              1.881
 Vibration    10          0.675              1.726              1.587
 Vibration    11          0.681              1.707              1.520
 Vibration    12          0.702              1.646              1.338
 Vibration    13          0.713              1.616              1.260
 Vibration    14          0.733              1.558              1.129
 Vibration    15          0.748              1.518              1.048
 Vibration    16          0.773              1.452              0.933
 Vibration    17          0.790              1.408              0.864
 Vibration    18          0.809              1.362              0.797
 Vibration    19          0.833              1.301              0.718
 Vibration    20          0.864              1.231              0.638
 Vibration    21          0.898              1.155              0.559
 Vibration    22          0.962              1.024              0.443
 Vibration    23          0.976              0.996              0.422

                           ! Non-Optimized Parameters !
 Normal termination of Gaussian 16 at Fri May 19 10:14:53 2023.
