 Gaussian 16, Revision A.03,
 Gaussian 16:  ES64L-G16RevA.03 25-Dec-2016

 -----------------------------
 # opt freq b3lyp/6-31g(2df,p)
 -----------------------------

 -------------------
 Title Card Required
 -------------------
 Symbolic Z-matrix:
 Charge =  0 Multiplicity = 1

 SCF Done:  E(RB3LYP) =  -808.467224931     A.U. after   20 cycles
 SCF Done:  E(RB3LYP) =  -808.554605254     A.U. after   15 cycles
 SCF Done:  E(RB3LYP) =  -808.660764443     A.U. after   15 cycles
 SCF Done:  E(RB3LYP) =  -808.747449325     A.U. after   14 cycles
 SCF Done:  E(RB3LYP) =  -808.753210734     A.U. after   12 cycles
 SCF Done:  E(RB3LYP) =  -808.755860605     A.U. after   10 cycles
 SCF Done:  E(RB3LYP) =  -808.785418621     A.U. after   14 cycles
 SCF Done:  E(RB3LYP) =  -808.804573896     A.U. after   15 cycles
 SCF Done:  E(RB3LYP) =  -808.814455675     A.U. after   13 cycles
 SCF Done:  E(RB3LYP) =  -808.826292158     A.U. after   13 cycles
 SCF Done:  E(RB3LYP) =  -808.909657703     A.U. after   12 cycles
 SCF Done:  E(RB3LYP) =  -808.909723598     A.U. after   12 cycles
 SCF Done:  E(RB3LYP) =  -808.909742285     A.U. after   10 cycles
 SCF Done:  E(RB3LYP) =  -808.909763251     A.U. after   11 cycles
 SCF Done:  E(RB3LYP) =  -808.909770409     A.U. after   10 cycles
 SCF Done:  E(RB3LYP) =  -808.909771692     A.U. after    9 cycles
 SCF Done:  E(RB3LYP) =  -808.909772847     A.U. after    8 cycles
 SCF Done:  E(RB3LYP) =  -808.909773150     A.U. after    8 cycles
 SCF Done:  E(RB3LYP) =  -808.909773194     A.U. after    7 cycles
 Optimization completed.
    -- Stationary point found.
 Normal termination of Gaussian 16 at Fri May 19 05:22:12 2023.

 ----------------------------------------------------------------------
 #N Geom=AllCheck Guess=TCheck SCRF=Check GenChk RB3LYP/6-31G(2df,p) Fr
 eq
 ----------------------------------------------------------------------

 Structure from the checkpoint file:  "NN1NNdCCCdC2CdC2CdCCdNNN1O.chk"
 -------------------
 Title Card Required
 -------------------
 Charge =  0 Multiplicity = 1

                         Standard orientation:
 ---------------------------------------------------------------------
 Center     Atomic      Atomic             Coordinates (Angstroms)
 Number     Number       Type             X           Y           Z
 ---------------------------------------------------------------------
      1          7           0       -2.664284   -1.442810   -1.215131
      2          7           0       -1.840141   -0.762152   -0.284989
      3          7           0       -0.905598   -1.590285    0.364204
      4          7           0        0.331952   -1.526490   -0.350986
      5          6           0        1.322993   -2.036176    0.266985
      6          6           0        2.697988   -2.045424   -0.354254
      7          6           0        3.692936   -1.124991    0.347704
      8          6           0        3.563712    0.198835    0.304011
      9          6           0        3.861012    1.569008    0.576373
     10          6           0        2.754257    1.325745   -0.114439
     11          6           0        1.483463    1.554746   -0.722135
     12          6           0        0.503761    2.357775   -0.256304
     13          6           0       -0.848596    1.951152   -0.581108
     14          7           0       -1.829114    2.206144    0.207294
     15          7           0       -2.905584    1.288947   -0.032421
     16          7           0       -2.485810    0.043967    0.669144
     17          8           0       -3.752795   -0.549285    1.050612
     18          1           0       -2.871776   -0.784272   -1.960823
     19          1           0       -3.547836   -1.660927   -0.752150
     20          1           0       -1.238513   -2.552532    0.311600
     21          1           0        1.213875   -2.461387    1.272222
     22          1           0        2.586012   -1.782717   -1.411843
     23          1           0        3.084588   -3.071301   -0.323965
     24          1           0        4.523179   -1.573531    0.882079
     25          1           0        4.516927    2.300952    1.020127
     26          1           0        1.201216    0.789787   -1.440238
     27          1           0        0.660044    3.076192    0.541685
     28          1           0       -0.956168    1.237370   -1.397416
     29          1           0       -3.658302    1.605174    0.574116
     30          1           0       -3.589990   -0.753794    1.978914
 ---------------------------------------------------------------------

 SCF Done:  E(RB3LYP) =  -808.909773194     A.U. after    1 cycles

 The electronic state is 1-A.
 Alpha  occ. eigenvalues --  -19.18217 -14.42894 -14.40013 -14.37359 -14.37187
 Alpha  occ. eigenvalues --  -14.34475 -14.34166 -14.34148 -10.22750 -10.22570
 Alpha  occ. eigenvalues --  -10.22162 -10.21231 -10.21107 -10.20785 -10.20456
 Alpha  occ. eigenvalues --  -10.18268 -10.15841  -1.10758  -1.02383  -0.98344
 Alpha  occ. eigenvalues --   -0.94048  -0.90922  -0.85940  -0.83679  -0.80533
 Alpha  occ. eigenvalues --   -0.77343  -0.74502  -0.67724  -0.65325  -0.62853
 Alpha  occ. eigenvalues --   -0.57391  -0.57172  -0.55694  -0.55061  -0.52968
 Alpha  occ. eigenvalues --   -0.51903  -0.50580  -0.50455  -0.47888  -0.47779
 Alpha  occ. eigenvalues --   -0.47224  -0.45638  -0.43172  -0.42674  -0.40671
 Alpha  occ. eigenvalues --   -0.40432  -0.39367  -0.36619  -0.36442  -0.35661
 Alpha  occ. eigenvalues --   -0.34923  -0.34431  -0.32141  -0.29810  -0.29338
 Alpha  occ. eigenvalues --   -0.28599  -0.26964  -0.25553  -0.25263  -0.22379
 Alpha  occ. eigenvalues --   -0.21209  -0.19025
 Alpha virt. eigenvalues --   -0.06790   0.00791   0.02150   0.04747   0.06028
 Alpha virt. eigenvalues --    0.06662   0.09441   0.10187   0.10516   0.11368
 Alpha virt. eigenvalues --    0.12642   0.12992   0.14028   0.14684   0.15065

 Mulliken charges:
               1
     1  N   -0.461386
     2  N    0.016290
     3  N   -0.212449
     4  N   -0.141605
     5  C    0.063404
     6  C   -0.292491
     7  C   -0.358118
     8  C    0.379555
     9  C   -0.378490
    10  C    0.252664
    11  C   -0.188220
    12  C   -0.133622
    13  C    0.090452
    14  N   -0.195279
    15  N   -0.237717
    16  N    0.005564
    17  O   -0.415454
    18  H    0.255547
    19  H    0.247029
    20  H    0.231239
    21  H    0.086812
    22  H    0.110841
    23  H    0.104159
    24  H    0.078116
    25  H    0.159489
    26  H    0.139947
    27  H    0.119795
    28  H    0.117613
    29  H    0.245709
    30  H    0.310606
 Sum of Mulliken charges =  -0.00000

 Dipole moment (field-independent basis, Debye):
    X=             -0.0819    Y=             -0.4173    Z=              1.1987  Tot=              1.2719
 Quadrupole moment (field-independent basis, Debye-Ang):
   XX=            -87.9365   YY=            -92.7183   ZZ=            -94.2403
   XY=              8.0789   XZ=             -1.1263   YZ=             -3.0527

  Exact polarizability: 242.915 -13.539 157.583   6.005   1.267 102.628
 Approx polarizability: 377.680 -38.945 245.988   5.300   0.979 178.687

                      1                      2                      3
                      A                      A                      A
 Frequencies --     48.7740                55.0034                77.7171
 Red. masses --      5.5634                 4.0602                 6.1473
 Frc consts  --      0.0078                 0.0072                 0.0219
 IR Inten    --      0.7145                 2.1048                 0.1804

                      4                      5                      6
                      A                      A                      A
 Frequencies --     97.3314               139.4612               157.6580
 Red. masses --      3.7862                 4.4312                 4.5709
 Frc consts  --      0.0211                 0.0508                 0.0669
 IR Inten    --      2.6155                 1.2590                 2.0542

                      7                      8                      9
                      A                      A                      A
 Frequencies --    165.6932               199.2754               225.7438
 Red. masses --      3.5867                 3.0445                 3.5660
 Frc consts  --      0.0580                 0.0712                 0.1071
 IR Inten    --      9.4803                 3.0129                 2.9342

                     10                     11                     12
                      A                      A                      A
 Frequencies --    240.1650               255.5558               264.7025
 Red. masses --      4.6600                 3.8300                 2.6746
 Frc consts  --      0.1584                 0.1474                 0.1104
 IR Inten    --      4.6916                 0.9419                13.0548

                     13                     14                     15
                      A                      A                      A
 Frequencies --    287.9495               293.7512               327.0626
 Red. masses --      1.3140                 3.3331                 3.5197
 Frc consts  --      0.0642                 0.1695                 0.2218
 IR Inten    --     57.6725                 4.8074                 9.5076

                     16                     17                     18
                      A                      A                      A
 Frequencies --    349.4869               374.3545               384.2980
 Red. masses --      3.0745                 4.3551                 1.4855
 Frc consts  --      0.2212                 0.3596                 0.1293
 IR Inten    --     14.1218                 2.7125                36.0336

                     19                     20                     21
                      A                      A                      A
 Frequencies --    397.3245               422.4384               438.2707
 Red. masses --      3.0733                 2.8776                 3.6408
 Frc consts  --      0.2859                 0.3026                 0.4120
 IR Inten    --     14.8662                31.7936                 3.9997

                     22                     23                     24
                      A                      A                      A
 Frequencies --    464.4659               497.3196               511.7825
 Red. masses --      3.2424                 4.0325                 5.6922
 Frc consts  --      0.4121                 0.5876                 0.8784
 IR Inten    --     13.1358                 8.5833                 7.3874

                     25                     26                     27
                      A                      A                      A
 Frequencies --    572.9218               612.2343               613.5438
 Red. masses --      4.7553                 4.9464                 3.7371
 Frc consts  --      0.9196                 1.0924                 0.8289
 IR Inten    --      7.1425                 5.7127                10.3456

                     28                     29                     30
                      A                      A                      A
 Frequencies --    655.3188               702.6070               743.2913
 Red. masses --      3.9334                 4.9019                 2.0797
 Frc consts  --      0.9952                 1.4257                 0.6770
 IR Inten    --     13.5732                41.7476                 0.7119

                     31                     32                     33
                      A                      A                      A
 Frequencies --    748.3795               775.6827               798.1187
 Red. masses --      1.4743                 1.6512                 4.9672
 Frc consts  --      0.4865                 0.5853                 1.8642
 IR Inten    --     22.0690                34.0714                 8.7827

                     34                     35                     36
                      A                      A                      A
 Frequencies --    816.7548               858.8492               873.2414
 Red. masses --      2.8511                 3.5314                 2.1868
 Frc consts  --      1.1206                 1.5347                 0.9825
 IR Inten    --      8.2518                 6.3942                17.8900

                     37                     38                     39
                      A                      A                      A
 Frequencies --    883.2038               913.4126               929.9942
 Red. masses --      5.5107                 5.4803                 2.6044
 Frc consts  --      2.5327                 2.6940                 1.3272
 IR Inten    --    117.1298                35.8927               106.2567

                     40                     41                     42
                      A                      A                      A
 Frequencies --    943.9952               967.6080               986.4642
 Red. masses --      2.1607                 4.5682                 1.4255
 Frc consts  --      1.1345                 2.5200                 0.8173
 IR Inten    --      5.3270                14.1667                 7.4134

                     43                     44                     45
                      A                      A                      A
 Frequencies --    992.4332              1019.8957              1030.0423
 Red. masses --      2.7140                 2.2663                 1.2715
 Frc consts  --      1.5749                 1.3889                 0.7948
 IR Inten    --     13.2330                 4.8730                47.2946

                     46                     47                     48
                      A                      A                      A
 Frequencies --   1044.0240              1065.3590              1080.4395
 Red. masses --      2.8693                 3.4116                 2.4152
 Frc consts  --      1.8427                 2.2814                 1.6611
 IR Inten    --     10.1490                21.3667                 3.4855

                     49                     50                     51
                      A                      A                      A
 Frequencies --   1117.1005              1130.4498              1159.9441
 Red. masses --      2.5474                 1.9344                 2.1500
 Frc consts  --      1.8730                 1.4564                 1.7043
 IR Inten    --      2.5055                46.4155                35.3946

                     52                     53                     54
                      A                      A                      A
 Frequencies --   1212.9194              1233.5100              1254.2753
 Red. masses --      1.5425                 1.3785                 2.0144
 Frc consts  --      1.3370                 1.2358                 1.8672
 IR Inten    --      5.5214                23.6776                14.3589

                     55                     56                     57
                      A                      A                      A
 Frequencies --   1261.5599              1302.6087              1324.8159
 Red. masses --      1.5236                 1.3439                 1.1851
 Frc consts  --      1.4287                 1.3435                 1.2255
 IR Inten    --     10.6287                 7.5745                10.9074

                     58                     59                     60
                      A                      A                      A
 Frequencies --   1338.2479              1345.6954              1354.9620
 Red. masses --      1.1857                 1.3690                 1.4724
 Frc consts  --      1.2511                 1.4607                 1.5927
 IR Inten    --     58.0640                10.2799                 1.3742

                     61                     62                     63
                      A                      A                      A
 Frequencies --   1365.5153              1397.5786              1467.3634
 Red. masses --      1.4375                 1.2845                 1.1884
 Frc consts  --      1.5792                 1.4783                 1.5076
 IR Inten    --      7.6645                 5.2915                 9.5555

                     64                     65                     66
                      A                      A                      A
 Frequencies --   1471.1991              1499.6743              1628.1983
 Red. masses --      1.0899                 1.1627                 5.0732
 Frc consts  --      1.3899                 1.5406                 7.9240
 IR Inten    --      5.5529                 3.4921                12.9237

                     67                     68                     69
                      A                      A                      A
 Frequencies --   1661.6472              1672.5218              1678.5570
 Red. masses --      5.6809                 1.0906                 8.3078
 Frc consts  --      9.2416                 1.7975                13.7913
 IR Inten    --      7.6425                15.1093                72.3691

                     70                     71                     72
                      A                      A                      A
 Frequencies --   1705.7792              1879.8084              3028.7822
 Red. masses --      7.4436                 8.8503                 1.0591
 Frc consts  --     12.7608                18.4262                 5.7244
 IR Inten    --     10.0889               112.6405                35.7896

                     73                     74                     75
                      A                      A                      A
 Frequencies --   3045.2693              3073.5358              3127.4560
 Red. masses --      1.0868                 1.1025                 1.0878
 Frc consts  --      5.9383                 6.1362                 6.2686
 IR Inten    --     22.7781                22.3175                11.8317

                     76                     77                     78
                      A                      A                      A
 Frequencies --   3167.6812              3173.1772              3194.3070
 Red. masses --      1.0873                 1.0883                 1.0905
 Frc consts  --      6.4282                 6.4561                 6.5558
 IR Inten    --      4.5173                23.7001                 4.5589

                     79                     80                     81
                      A                      A                      A
 Frequencies --   3257.3286              3438.1524              3449.5987
 Red. masses --      1.1129                 1.0519                 1.0712
 Frc consts  --      6.9573                 7.3264                 7.5104
 IR Inten    --      1.5485                 5.2475                 6.0744

                     82                     83                     84
                      A                      A                      A
 Frequencies --   3505.6517              3542.3681              3804.3805
 Red. masses --      1.0750                 1.0896                 1.0676
 Frc consts  --      7.7841                 8.0554                 9.1035
 IR Inten    --     11.1932                 4.9272                72.2321

 - Thermochemistry -
 -------------------
 Temperature   298.150 Kelvin.  Pressure   1.00000 Atm.
 Atom     1 has atomic number  7 and mass  14.00307

 Molecular mass:   235.11816 amu.
 Principal axes and moments of inertia in atomic units:
                           1         2         3
     Eigenvalues --  2319.172085602.305087286.99775
           X            0.99999  -0.00421   0.00294
           Y            0.00420   0.99999   0.00327
           Z           -0.00295  -0.00326   0.99999
 This molecule is an asymmetric top.
 Rotational symmetry number  1.
 Warning -- assumption of classical behavior for rotation
           may cause significant error
 Rotational temperatures (Kelvin)      0.03735     0.01546     0.01189
 Rotational constants (GHZ):           0.77818     0.32214     0.24767
 Zero-point vibrational energy     613534.9 (Joules/Mol)
                                  146.63835 (Kcal/Mol)
 Warning -- explicit consideration of  27 degrees of freedom as
           vibrations may cause significant error
 Vibrational temperatures:     70.17    79.14   111.82   140.04   200.65
          (Kelvin)            226.83   238.40   286.71   324.79   345.54
                              367.69   380.85   414.30   422.64   470.57
                              502.83   538.61   552.92   571.66   607.79
                              630.57   668.26   715.53   736.34   824.31
                              880.87   882.75   942.86  1010.89  1069.43
                             1076.75  1116.03  1148.31  1175.13  1235.69
                             1256.40  1270.73  1314.20  1338.05  1358.20
                             1392.17  1419.30  1427.89  1467.40  1482.00
                             1502.12  1532.81  1554.51  1607.26  1626.47
                             1668.90  1745.12  1774.75  1804.62  1815.10
                             1874.16  1906.11  1925.44  1936.16  1949.49
                             1964.67  2010.80  2111.21  2116.73  2157.70
                             2342.61  2390.74  2406.39  2415.07  2454.24
                             2704.62  4357.74  4381.46  4422.13  4499.71
                             4557.59  4565.49  4595.90  4686.57  4946.73
                             4963.20  5043.85  5096.68  5473.66

 Zero-point correction=                           0.233683 (Hartree/Particle)
 Thermal correction to Energy=                    0.249941
 Thermal correction to Enthalpy=                  0.250885
 Thermal correction to Gibbs Free Energy=         0.190730
 Sum of electronic and zero-point Energies=           -808.676090
 Sum of electronic and thermal Energies=              -808.659832
 Sum of electronic and thermal Enthalpies=            -808.658888
 Sum of electronic and thermal Free Energies=         -808.719043

                     E (Thermal)             CV                S
                      KCal/Mol        Cal/Mol-Kelvin    Cal/Mol-Kelvin
 Total                  156.841             63.101            126.607
 Electronic               0.000              0.000              0.000
 Translational            0.889              2.981             42.266
 Rotational               0.889              2.981             32.915
 Vibrational            155.063             57.140             51.426
 Vibration     1          0.595              1.978              4.866
 Vibration     2          0.596              1.976              4.629
 Vibration     3          0.599              1.964              3.948
 Vibration     4          0.603              1.951              3.507
 Vibration     5          0.615              1.914              2.811
 Vibration     6          0.621              1.894              2.578
 Vibration     7          0.624              1.885              2.484
 Vibration     8          0.637              1.841              2.140
 Vibration     9          0.650              1.802              1.913
 Vibration    10          0.657              1.779              1.802
 Vibration    11          0.666              1.753              1.692
 Vibration    12          0.671              1.738              1.631
 Vibration    13          0.685              1.696              1.486
 Vibration    14          0.689              1.685              1.452
 Vibration    15          0.711              1.621              1.275
 Vibration    16          0.727              1.576              1.169
 Vibration    17          0.745              1.525              1.062
 Vibration    18          0.753              1.504              1.022
 Vibration    19          0.764              1.476              0.973
 Vibration    20          0.785              1.421              0.884
 Vibration    21          0.798              1.387              0.832
 Vibration    22          0.822              1.329              0.753
 Vibration    23          0.853              1.256              0.665
 Vibration    24          0.867              1.224              0.629
 Vibration    25          0.929              1.090              0.499
 Vibration    26          0.971              1.006              0.429
 Vibration    27          0.973              1.003              0.427

 Optimization completed.
    -- Stationary point found.
 Normal termination of Gaussian 16 at Fri May 19 08:07:25 2023.
