 Gaussian 16, Revision A.03,
 Gaussian 16:  ES64L-G16RevA.03 25-Dec-2016

 -----------------------------
 # opt freq b3lyp/6-31g(2df,p)
 -----------------------------

 -------------------
 Title Card Required
 -------------------
 Symbolic Z-matrix:
 Charge =  0 Multiplicity = 1

 SCF Done:  E(RB3LYP) =  -649.848016769     A.U. after   33 cycles
 SCF Done:  E(RB3LYP) =  -650.009248038     A.U. after   24 cycles
 SCF Done:  E(RB3LYP) =  -650.230185850     A.U. after   20 cycles
 SCF Done:  E(RB3LYP) =  -649.613335361     A.U. after   29 cycles
 SCF Done:  E(RB3LYP) =  -650.305773300     A.U. after   22 cycles
 SCF Done:  E(RB3LYP) =  -650.430423153     A.U. after   21 cycles
 SCF Done:  E(RB3LYP) =  -650.499050761     A.U. after   19 cycles
 SCF Done:  E(RB3LYP) =  -650.533190818     A.U. after   19 cycles
 SCF Done:  E(RB3LYP) =  -650.569497244     A.U. after   20 cycles
 SCF Done:  E(RB3LYP) =  -650.670720896     A.U. after   18 cycles
 SCF Done:  E(RB3LYP) =  -651.083442285     A.U. after    8 cycles
 SCF Done:  E(RB3LYP) =  -651.083444751     A.U. after    8 cycles
 SCF Done:  E(RB3LYP) =  -651.083446661     A.U. after    8 cycles
 SCF Done:  E(RB3LYP) =  -651.083449228     A.U. after    8 cycles
 SCF Done:  E(RB3LYP) =  -651.083452117     A.U. after    8 cycles
 SCF Done:  E(RB3LYP) =  -651.083453482     A.U. after    7 cycles
 SCF Done:  E(RB3LYP) =  -651.083454175     A.U. after    7 cycles
 SCF Done:  E(RB3LYP) =  -651.083455159     A.U. after    7 cycles
 SCF Done:  E(RB3LYP) =  -651.083455601     A.U. after    7 cycles
 Optimization completed.
    -- Stationary point found.
 Normal termination of Gaussian 16 at Thu May 18 11:03:39 2023.

 ----------------------------------------------------------------------
 #N Geom=AllCheck Guess=TCheck SCRF=Check GenChk RB3LYP/6-31G(2df,p) Fr
 eq
 ----------------------------------------------------------------------

 Structure from the checkpoint file:  "NNc1ccccccc2cccc-2cc1.chk"
 -------------------
 Title Card Required
 -------------------
 Charge =  0 Multiplicity = 1

                         Standard orientation:
 ---------------------------------------------------------------------
 Center     Atomic      Atomic             Coordinates (Angstroms)
 Number     Number       Type             X           Y           Z
 ---------------------------------------------------------------------
      1          7           0        3.959699    1.473134   -0.022056
      2          7           0        3.025000    1.245465   -1.074956
      3          6           0        1.476877    0.166725    0.604350
      4          6           0        2.023728    0.263276   -0.738889
      5          6           0        2.307352   -0.997926    0.157757
      6          6           0        1.433346   -2.144102   -0.307636
      7          6           0        0.299089   -2.406475    0.380633
      8          6           0       -1.009747   -2.225004   -0.225905
      9          6           0       -1.815141   -1.385409    0.472335
     10          6           0       -2.319122   -0.133136   -0.094279
     11          6           0       -2.869053    0.230867   -1.465317
     12          6           0       -3.603493    1.252789   -1.011972
     13          6           0       -3.172658    1.081510    0.443772
     14          6           0       -1.701768    1.084008    0.548263
     15          6           0       -0.639621    1.436988    1.271743
     16          6           0        0.528821    0.529653    1.454682
     17          1           0        4.275852    2.433754   -0.098138
     18          1           0        4.776932    0.871866   -0.111413
     19          1           0        3.492207    0.958739   -1.932948
     20          1           0        1.359650    0.101940   -1.588145
     21          1           0        3.335555   -1.126969    0.489223
     22          1           0        1.452320   -2.323852   -1.383747
     23          1           0        0.316965   -2.208408    1.449776
     24          1           0       -1.071729   -2.265862   -1.311514
     25          1           0       -1.670008   -1.340430    1.549744
     26          1           0       -2.602471   -0.120429   -2.454404
     27          1           0       -4.146310    2.055370   -1.494171
     28          1           0       -3.824358    1.096494    1.310784
     29          1           0       -0.717040    2.318725    1.908031
     30          1           0        0.497872   -0.003713    2.408775
 ---------------------------------------------------------------------

 SCF Done:  E(RB3LYP) =  -651.083455601     A.U. after    1 cycles

 The electronic state is 1-A.
 Alpha  occ. eigenvalues --  -14.34547 -14.33780 -10.21397 -10.21278 -10.20944
 Alpha  occ. eigenvalues --  -10.20317 -10.19184 -10.19093 -10.18966 -10.18907
 Alpha  occ. eigenvalues --  -10.18778 -10.18703 -10.18358 -10.18338 -10.18216
 Alpha  occ. eigenvalues --  -10.17128  -0.96357  -0.91362  -0.85998  -0.80692
 Alpha  occ. eigenvalues --   -0.78316  -0.76388  -0.72481  -0.72151  -0.65731
 Alpha  occ. eigenvalues --   -0.64234  -0.59784  -0.56742  -0.55599  -0.53194
 Alpha  occ. eigenvalues --   -0.52388  -0.51764  -0.50245  -0.49563  -0.48127
 Alpha  occ. eigenvalues --   -0.47288  -0.44979  -0.44767  -0.43382  -0.41790
 Alpha  occ. eigenvalues --   -0.41255  -0.38809  -0.37723  -0.36989  -0.34850
 Alpha  occ. eigenvalues --   -0.33084  -0.32751  -0.31588  -0.28873  -0.28503
 Alpha  occ. eigenvalues --   -0.25802  -0.25296  -0.23264  -0.22799  -0.21504
 Alpha  occ. eigenvalues --   -0.17666
 Alpha virt. eigenvalues --   -0.02702  -0.00994   0.00983   0.01415   0.03875
 Alpha virt. eigenvalues --    0.07356   0.09775   0.11056   0.11573   0.12141
 Alpha virt. eigenvalues --    0.13285   0.13940   0.14331   0.14711   0.15876

 Mulliken charges:
               1
     1  N   -0.461058
     2  N   -0.316640
     3  C    0.387853
     4  C   -0.049586
     5  C   -0.214210
     6  C   -0.144672
     7  C   -0.048915
     8  C   -0.114996
     9  C   -0.209340
    10  C    0.268597
    11  C   -0.174399
    12  C   -0.102001
    13  C   -0.286881
    14  C    0.314190
    15  C   -0.322669
    16  C   -0.282180
    17  H    0.245492
    18  H    0.227774
    19  H    0.216700
    20  H    0.096036
    21  H    0.087193
    22  H    0.077511
    23  H    0.087317
    24  H    0.088645
    25  H    0.094714
    26  H    0.105519
    27  H    0.113277
    28  H    0.112273
    29  H    0.104711
    30  H    0.099744
 Sum of Mulliken charges =  -0.00000

 Dipole moment (field-independent basis, Debye):
    X=              1.2281    Y=              0.9586    Z=             -1.0711  Tot=              1.8906
 Quadrupole moment (field-independent basis, Debye-Ang):
   XX=            -78.5510   YY=            -97.4403   ZZ=            -86.6199
   XY=             -0.4886   XZ=             -5.5937   YZ=              0.8271

  Exact polarizability: 212.320 -18.804 145.687  -3.279  10.892 133.147
 Approx polarizability: 341.929 -46.654 251.359 -23.555  32.447 235.543

                      1                      2                      3
                      A                      A                      A
 Frequencies --     37.7021                76.7890                95.1008
 Red. masses --      5.0592                 3.8225                 4.1909
 Frc consts  --      0.0042                 0.0133                 0.0223
 IR Inten    --      0.6654                 2.9622                 0.1506

                      4                      5                      6
                      A                      A                      A
 Frequencies --    138.1250               166.3404               209.2264
 Red. masses --      4.0566                 4.6323                 3.0196
 Frc consts  --      0.0456                 0.0755                 0.0779
 IR Inten    --      1.5786                 0.6089                12.7292

                      7                      8                      9
                      A                      A                      A
 Frequencies --    213.3760               231.9983               239.7881
 Red. masses --      2.9830                 2.9529                 3.8443
 Frc consts  --      0.0800                 0.0936                 0.1302
 IR Inten    --      9.2047                 4.3222                 0.1834

                     10                     11                     12
                      A                      A                      A
 Frequencies --    279.4035               298.7009               322.0849
 Red. masses --      1.9195                 2.1834                 3.1502
 Frc consts  --      0.0883                 0.1148                 0.1925
 IR Inten    --      5.4329                13.5460                 2.7671

                     13                     14                     15
                      A                      A                      A
 Frequencies --    328.1714               361.6286               392.1576
 Red. masses --      2.0683                 2.8023                 3.9828
 Frc consts  --      0.1312                 0.2159                 0.3609
 IR Inten    --     13.4273                 1.8919                 0.6836

                     16                     17                     18
                      A                      A                      A
 Frequencies --    420.4324               476.7589               494.3908
 Red. masses --      4.0916                 3.6775                 3.9856
 Frc consts  --      0.4261                 0.4925                 0.5740
 IR Inten    --      2.2908                 7.2248                 3.2726

                     19                     20                     21
                      A                      A                      A
 Frequencies --    515.8027               573.9834               618.8289
 Red. masses --      3.2537                 3.1115                 3.5122
 Frc consts  --      0.5100                 0.6040                 0.7925
 IR Inten    --      0.3957                 6.7834                 4.4935

                     22                     23                     24
                      A                      A                      A
 Frequencies --    641.4898               684.4128               713.9253
 Red. masses --      3.6411                 3.3827                 3.1761
 Frc consts  --      0.8828                 0.9336                 0.9538
 IR Inten    --     33.3204                45.8730                12.9776

                     25                     26                     27
                      A                      A                      A
 Frequencies --    738.2463               749.3848               762.0454
 Red. masses --      3.4216                 2.6447                 1.7068
 Frc consts  --      1.0987                 0.8751                 0.5840
 IR Inten    --      4.0185                14.7605                10.3192

                     28                     29                     30
                      A                      A                      A
 Frequencies --    779.2625               806.1946               815.4648
 Red. masses --      2.4250                 1.8743                 2.1260
 Frc consts  --      0.8676                 0.7177                 0.8329
 IR Inten    --     30.1803                76.5894               126.1867

                     31                     32                     33
                      A                      A                      A
 Frequencies --    839.6439               844.3321               858.7516
 Red. masses --      1.8784                 1.7797                 1.9239
 Frc consts  --      0.7803                 0.7475                 0.8359
 IR Inten    --     23.0924                51.1568                39.5992

                     34                     35                     36
                      A                      A                      A
 Frequencies --    889.0986               900.5731               965.9110
 Red. masses --      2.4555                 1.8984                 2.2858
 Frc consts  --      1.1436                 0.9072                 1.2565
 IR Inten    --      7.1366                23.6734                 0.7472

                     37                     38                     39
                      A                      A                      A
 Frequencies --    967.2777               969.6316               973.4902
 Red. masses --      1.8689                 1.9368                 1.7007
 Frc consts  --      1.0302                 1.0729                 0.9496
 IR Inten    --     31.2080                77.0854                 1.1741

                     40                     41                     42
                      A                      A                      A
 Frequencies --    983.6152              1010.3872              1014.6742
 Red. masses --      1.5561                 2.2619                 1.9095
 Frc consts  --      0.8870                 1.3605                 1.1583
 IR Inten    --      6.7126                15.6245                42.1557

                     43                     44                     45
                      A                      A                      A
 Frequencies --   1029.2212              1054.5904              1058.2538
 Red. masses --      2.2168                 1.4359                 1.7408
 Frc consts  --      1.3835                 0.9409                 1.1486
 IR Inten    --     32.4679                11.5749                 9.4138

                     46                     47                     48
                      A                      A                      A
 Frequencies --   1073.8590              1088.0982              1099.5853
 Red. masses --      1.7386                 1.8114                 1.3843
 Frc consts  --      1.1813                 1.2635                 0.9862
 IR Inten    --     23.3340                10.6226                 0.6101

                     49                     50                     51
                      A                      A                      A
 Frequencies --   1126.7049              1149.8667              1192.8343
 Red. masses --      1.9430                 2.6229                 1.4747
 Frc consts  --      1.4532                 2.0433                 1.2362
 IR Inten    --      3.6502                 6.4974                 5.3748

                     52                     53                     54
                      A                      A                      A
 Frequencies --   1217.2161              1232.2857              1241.5556
 Red. masses --      1.8050                 1.6329                 1.2773
 Frc consts  --      1.5756                 1.4609                 1.1600
 IR Inten    --      7.0913                 7.0515                 2.9093

                     55                     56                     57
                      A                      A                      A
 Frequencies --   1254.7668              1300.7007              1314.8792
 Red. masses --      1.9992                 1.7626                 1.2913
 Frc consts  --      1.8546                 1.7569                 1.3154
 IR Inten    --      7.5274                 1.3189                11.8624

                     58                     59                     60
                      A                      A                      A
 Frequencies --   1316.8119              1324.8338              1331.9515
 Red. masses --      1.3301                 1.2734                 1.3189
 Frc consts  --      1.3589                 1.3168                 1.3786
 IR Inten    --      4.4286                19.2545                 7.9520

                     61                     62                     63
                      A                      A                      A
 Frequencies --   1352.2312              1367.7317              1386.2324
 Red. masses --      2.8364                 1.2709                 1.8695
 Frc consts  --      3.0558                 1.4007                 2.1167
 IR Inten    --      0.0958                 3.8287                 3.5754

                     64                     65                     66
                      A                      A                      A
 Frequencies --   1502.8704              1592.7725              1601.0928
 Red. masses --      1.2027                 5.2259                 4.5296
 Frc consts  --      1.6005                 7.8111                 6.8414
 IR Inten    --      2.5470                 4.4002                30.3259

                     67                     68                     69
                      A                      A                      A
 Frequencies --   1615.2346              1675.1416              1739.9762
 Red. masses --      5.9221                 1.0839                10.0668
 Frc consts  --      9.1033                 1.7921                17.9568
 IR Inten    --     15.5378                10.7399                 8.0549

                     70                     71                     72
                      A                      A                      A
 Frequencies --   1810.7850              3070.7706              3099.0520
 Red. masses --     10.5669                 1.0839                 1.0863
 Frc consts  --     20.4142                 6.0217                 6.1470
 IR Inten    --     15.3699                13.4400                17.5808

                     73                     74                     75
                      A                      A                      A
 Frequencies --   3103.3735              3116.4318              3120.1479
 Red. masses --      1.0859                 1.0862                 1.0862
 Frc consts  --      6.1620                 6.2154                 6.2305
 IR Inten    --     15.6535                19.3313                54.4061

                     76                     77                     78
                      A                      A                      A
 Frequencies --   3135.4578              3140.9547              3150.3961
 Red. masses --      1.0863                 1.0873                 1.0862
 Frc consts  --      6.2923                 6.3199                 6.3520
 IR Inten    --      1.2408                 6.8759                36.0784

                     79                     80                     81
                      A                      A                      A
 Frequencies --   3176.5612              3194.1654              3226.3321
 Red. masses --      1.0896                 1.0847                 1.1145
 Frc consts  --      6.4780                 6.5205                 6.8349
 IR Inten    --      8.9805                 8.5680                27.5885

                     82                     83                     84
                      A                      A                      A
 Frequencies --   3437.6175              3453.7438              3556.0632
 Red. masses --      1.0628                 1.0632                 1.0905
 Frc consts  --      7.4000                 7.4719                 8.1251
 IR Inten    --     11.9838                 1.5080                 1.2691

 - Thermochemistry -
 -------------------
 Temperature   298.150 Kelvin.  Pressure   1.00000 Atm.
 Atom     1 has atomic number  7 and mass  14.00307

 Molecular mass:   210.11570 amu.
 Principal axes and moments of inertia in atomic units:
                           1         2         3
     Eigenvalues --  1936.694624702.024485518.58200
           X            0.99999   0.00105  -0.00354
           Y           -0.00104   0.99999   0.00469
           Z            0.00355  -0.00469   0.99998
 This molecule is an asymmetric top.
 Rotational symmetry number  1.
 Warning -- assumption of classical behavior for rotation
           may cause significant error
 Rotational temperatures (Kelvin)      0.04472     0.01842     0.01569
 Rotational constants (GHZ):           0.93187     0.38382     0.32703
 Zero-point vibrational energy     636603.3 (Joules/Mol)
                                  152.15183 (Kcal/Mol)
 Warning -- explicit consideration of  21 degrees of freedom as
           vibrations may cause significant error
 Vibrational temperatures:     54.24   110.48   136.83   198.73   239.33
          (Kelvin)            301.03   307.00   333.79   345.00   402.00
                              429.76   463.41   472.17   520.30   564.23
                              604.91   685.95   711.32   742.13   825.83
                              890.36   922.96   984.72  1027.18  1062.17
                             1078.20  1096.41  1121.18  1159.93  1173.27
                             1208.06  1214.81  1235.55  1279.21  1295.72
                             1389.73  1391.70  1395.08  1400.64  1415.20
                             1453.72  1459.89  1480.82  1517.32  1522.59
                             1545.04  1565.53  1582.06  1621.08  1654.40
                             1716.22  1751.30  1772.98  1786.32  1805.33
                             1871.42  1891.82  1894.60  1906.14  1916.38
                             1945.56  1967.86  1994.48  2162.30  2291.64
                             2303.62  2323.96  2410.16  2503.44  2605.32
                             4418.15  4458.84  4465.06  4483.85  4489.20
                             4511.22  4519.13  4532.72  4570.36  4595.69
                             4641.97  4945.96  4969.17  5116.38

 Zero-point correction=                           0.242469 (Hartree/Particle)
 Thermal correction to Energy=                    0.256529
 Thermal correction to Enthalpy=                  0.257473
 Thermal correction to Gibbs Free Energy=         0.202146
 Sum of electronic and zero-point Energies=           -650.840986
 Sum of electronic and thermal Energies=              -650.826926
 Sum of electronic and thermal Enthalpies=            -650.825982
 Sum of electronic and thermal Free Energies=         -650.881310

                     E (Thermal)             CV                S
                      KCal/Mol        Cal/Mol-Kelvin    Cal/Mol-Kelvin
 Total                  160.974             56.798            116.447
 Electronic               0.000              0.000              0.000
 Translational            0.889              2.981             41.931
 Rotational               0.889              2.981             32.286
 Vibrational            159.197             50.836             42.230
 Vibration     1          0.594              1.982              5.376
 Vibration     2          0.599              1.965              3.971
 Vibration     3          0.603              1.953              3.552
 Vibration     4          0.614              1.915              2.830
 Vibration     5          0.624              1.884              2.476
 Vibration     6          0.642              1.827              2.050
 Vibration     7          0.644              1.821              2.015
 Vibration     8          0.653              1.792              1.863
 Vibration     9          0.657              1.780              1.804
 Vibration    10          0.680              1.712              1.537
 Vibration    11          0.692              1.676              1.424
 Vibration    12          0.707              1.631              1.299
 Vibration    13          0.711              1.619              1.269
 Vibration    14          0.736              1.551              1.115
 Vibration    15          0.760              1.487              0.992
 Vibration    16          0.783              1.426              0.891
 Vibration    17          0.833              1.302              0.719
 Vibration    18          0.850              1.262              0.672
 Vibration    19          0.871              1.215              0.620
 Vibration    20          0.930              1.088              0.497
 Vibration    21          0.979              0.992              0.418

                           ! Non-Optimized Parameters !
 Normal termination of Gaussian 16 at Thu May 18 14:00:01 2023.
