 Gaussian 16, Revision A.03,
 Gaussian 16:  ES64L-G16RevA.03 25-Dec-2016

 -----------------------------
 # opt freq b3lyp/6-31g(2df,p)
 -----------------------------

 -------------------
 Title Card Required
 -------------------
 Symbolic Z-matrix:
 Charge =  0 Multiplicity = 1

 SCF Done:  E(RB3LYP) =  -665.586462592     A.U. after   34 cycles
 SCF Done:  E(RB3LYP) =  -665.799774232     A.U. after   24 cycles
 SCF Done:  E(RB3LYP) =  -666.063868129     A.U. after   23 cycles
 SCF Done:  E(RB3LYP) =  -666.308640109     A.U. after   19 cycles
 SCF Done:  E(RB3LYP) =  -666.423956058     A.U. after   18 cycles
 SCF Done:  E(RB3LYP) =  -666.461583772     A.U. after   17 cycles
 SCF Done:  E(RB3LYP) =  -666.719276559     A.U. after   16 cycles
 SCF Done:  E(RB3LYP) =  -666.839098991     A.U. after   15 cycles
 SCF Done:  E(RB3LYP) =  -666.896949526     A.U. after   15 cycles
 SCF Done:  E(RB3LYP) =  -666.941621465     A.U. after   15 cycles
 SCF Done:  E(RB3LYP) =  -667.087203775     A.U. after   11 cycles
 SCF Done:  E(RB3LYP) =  -667.087206683     A.U. after    9 cycles
 SCF Done:  E(RB3LYP) =  -667.087211129     A.U. after   11 cycles
 SCF Done:  E(RB3LYP) =  -667.087213257     A.U. after   10 cycles
 SCF Done:  E(RB3LYP) =  -667.087215536     A.U. after    9 cycles
 SCF Done:  E(RB3LYP) =  -667.087218729     A.U. after    9 cycles
 SCF Done:  E(RB3LYP) =  -667.087220251     A.U. after    9 cycles
 SCF Done:  E(RB3LYP) =  -667.087220679     A.U. after    8 cycles
 SCF Done:  E(RB3LYP) =  -667.087220849     A.U. after    7 cycles
 Optimization completed.
    -- Stationary point found.
 Normal termination of Gaussian 16 at Thu May 18 07:27:24 2023.

 ----------------------------------------------------------------------
 #N Geom=AllCheck Guess=TCheck SCRF=Check GenChk RB3LYP/6-31G(2df,p) Fr
 eq
 ----------------------------------------------------------------------

 Structure from the checkpoint file:  "NNC1dCNdC2CdCCdCCdCCdC1CdC2.chk"
 -------------------
 Title Card Required
 -------------------
 Charge =  0 Multiplicity = 1

                         Standard orientation:
 ---------------------------------------------------------------------
 Center     Atomic      Atomic             Coordinates (Angstroms)
 Number     Number       Type             X           Y           Z
 ---------------------------------------------------------------------
      1          7           0        3.001195    2.270778   -0.319342
      2          7           0        3.736915    1.056023   -0.401514
      3          6           0        2.874239   -0.114619   -0.084809
      4          6           0        1.683650   -0.208356   -1.038158
      5          7           0        0.445673   -0.160711   -0.736975
      6          6           0        0.070523   -0.079698    0.612514
      7          6           0       -1.257051   -0.050434    0.920037
      8          6           0       -2.334191   -0.092289   -0.024094
      9          6           0       -3.634256   -0.041924    0.333689
     10          6           0       -4.762452   -0.082792   -0.601872
     11          6           0       -6.096641    0.536165   -0.306435
     12          6           0       -5.978929   -0.943045   -0.246219
     13          6           0        4.655582   -2.164666   -0.527534
     14          6           0        3.774194   -1.284964   -0.303116
     15          6           0        2.400592   -0.042458    1.341963
     16          6           0        1.097073   -0.033226    1.638781
     17          1           0        2.605449    2.541329   -1.216768
     18          1           0        3.642417    2.996426   -0.020825
     19          1           0        4.154903    0.914448   -1.320383
     20          1           0        1.949501   -0.288348   -2.096231
     21          1           0       -1.522846    0.008968    1.973498
     22          1           0       -2.058883   -0.160103   -1.072147
     23          1           0       -3.889552    0.029974    1.390055
     24          1           0       -4.492547   -0.154267   -1.655000
     25          1           0       -6.291070    1.021677    0.650624
     26          1           0       -6.665078    0.967838   -1.127055
     27          1           0        3.385043   -2.456878   -0.364503
     28          1           0        3.171785    0.007642    2.101983
     29          1           0        0.770390    0.022509    2.673089
 ---------------------------------------------------------------------

 SCF Done:  E(RB3LYP) =  -667.087220849     A.U. after    1 cycles

 The electronic state is 1-A.
 Alpha  occ. eigenvalues --  -14.36527 -14.35113 -14.33822 -10.26484 -10.24622
 Alpha  occ. eigenvalues --  -10.23686 -10.22203 -10.21647 -10.21459 -10.21026
 Alpha  occ. eigenvalues --  -10.20814 -10.20019 -10.19963 -10.19693 -10.19607
 Alpha  occ. eigenvalues --  -10.19154  -0.98467  -0.94501  -0.88877  -0.85330
 Alpha  occ. eigenvalues --   -0.81691  -0.80124  -0.78453  -0.74810  -0.69267
 Alpha  occ. eigenvalues --   -0.64395  -0.63520  -0.59939  -0.57074  -0.55538
 Alpha  occ. eigenvalues --   -0.55245  -0.52487  -0.51182  -0.50595  -0.48094
 Alpha  occ. eigenvalues --   -0.47714  -0.46966  -0.43808  -0.42895  -0.41789
 Alpha  occ. eigenvalues --   -0.40385  -0.39903  -0.39118  -0.38796  -0.37978
 Alpha  occ. eigenvalues --   -0.36458  -0.33276  -0.30971  -0.29638  -0.29032
 Alpha  occ. eigenvalues --   -0.28137  -0.27359  -0.26684  -0.24750  -0.24102
 Alpha  occ. eigenvalues --   -0.20155
 Alpha virt. eigenvalues --   -0.10589  -0.06603  -0.01913   0.00857   0.03367
 Alpha virt. eigenvalues --    0.05582   0.06276   0.07381   0.09154   0.10467
 Alpha virt. eigenvalues --    0.10921   0.11660   0.11977   0.13077   0.14043

 Mulliken charges:
               1
     1  N   -0.464879
     2  N   -0.318448
     3  C    0.047473
     4  C   -0.031284
     5  N   -0.291546
     6  C    0.303543
     7  C   -0.172125
     8  C   -0.102369
     9  C   -0.041372
    10  C   -0.059690
    11  C   -0.315315
    12  C   -0.069448
    13  C   -0.391642
    14  C    0.123852
    15  C   -0.088216
    16  C   -0.120333
    17  H    0.235752
    18  H    0.250920
    19  H    0.229783
    20  H    0.110659
    21  H    0.093795
    22  H    0.110736
    23  H    0.091972
    24  H    0.119373
    25  H    0.151258
    26  H    0.157021
    27  H    0.223962
    28  H    0.116090
    29  H    0.100478
 Sum of Mulliken charges =  -0.00000

 Dipole moment (field-independent basis, Debye):
    X=             -1.9843    Y=              4.7583    Z=             -0.4596  Tot=              5.1759
 Quadrupole moment (field-independent basis, Debye-Ang):
   XX=           -108.4823   YY=            -98.8393   ZZ=            -84.4008
   XY=              3.7787   XZ=             -0.4318   YZ=             -4.4514

  Exact polarizability: 399.103 -11.343 113.879 -10.195   3.964 126.063
 Approx polarizability: 612.239 -11.136 176.277 -28.307   8.710 204.518

                      1                      2                      3
                      A                      A                      A
 Frequencies --     21.5764                53.0040                59.1446
 Red. masses --      5.8359                 4.2285                 5.5311
 Frc consts  --      0.0016                 0.0070                 0.0114
 IR Inten    --      0.6609                 3.9149                 0.7054

                      4                      5                      6
                      A                      A                      A
 Frequencies --     68.7324               114.1773               122.0209
 Red. masses --      3.7873                 3.5805                 6.5762
 Frc consts  --      0.0105                 0.0275                 0.0577
 IR Inten    --      3.0009                 9.6944                10.6035

                      7                      8                      9
                      A                      A                      A
 Frequencies --    131.0269               137.6834               170.0675
 Red. masses --      3.7433                 4.1475                 1.2170
 Frc consts  --      0.0379                 0.0463                 0.0207
 IR Inten    --      8.9094                 5.7513                10.3261

                     10                     11                     12
                      A                      A                      A
 Frequencies --    175.7218               213.8771               224.1635
 Red. masses --      4.5879                 3.1678                 2.0750
 Frc consts  --      0.0835                 0.0854                 0.0614
 IR Inten    --      7.7828                 4.6392                13.4586

                     13                     14                     15
                      A                      A                      A
 Frequencies --    247.5831               278.9151               306.3352
 Red. masses --      2.0502                 2.6978                 3.8860
 Frc consts  --      0.0740                 0.1237                 0.2149
 IR Inten    --     32.6038                 9.9460                 8.1548

                     16                     17                     18
                      A                      A                      A
 Frequencies --    327.0493               345.5815               392.3902
 Red. masses --      2.0963                 2.9897                 2.8685
 Frc consts  --      0.1321                 0.2104                 0.2602
 IR Inten    --     11.7512                 5.2542                43.4272

                     19                     20                     21
                      A                      A                      A
 Frequencies --    428.6400               452.3312               477.7782
 Red. masses --      2.8937                 3.9678                 4.6537
 Frc consts  --      0.3132                 0.4783                 0.6259
 IR Inten    --     27.8153                 3.3931                14.8073

                     22                     23                     24
                      A                      A                      A
 Frequencies --    496.8278               526.0552               552.2917
 Red. masses --      3.3902                 4.1106                 3.2773
 Frc consts  --      0.4931                 0.6702                 0.5890
 IR Inten    --      7.1573                10.5504                 4.7593

                     25                     26                     27
                      A                      A                      A
 Frequencies --    603.5032               631.4281               671.8455
 Red. masses --      8.0306                 1.5893                 1.9525
 Frc consts  --      1.7233                 0.3733                 0.5192
 IR Inten    --      4.3215                19.5360                23.7589

                     28                     29                     30
                      A                      A                      A
 Frequencies --    683.6082               709.6791               726.7084
 Red. masses --      2.3674                 1.5312                 3.7376
 Frc consts  --      0.6518                 0.4544                 1.1629
 IR Inten    --     36.9686                16.4472                10.6385

                     31                     32                     33
                      A                      A                      A
 Frequencies --    759.9413               768.8566               804.5019
 Red. masses --      3.4312                 1.5288                 1.7155
 Frc consts  --      1.1675                 0.5325                 0.6542
 IR Inten    --    191.2929                21.6486                23.3394

                     34                     35                     36
                      A                      A                      A
 Frequencies --    840.9831               869.8595               904.4588
 Red. masses --      4.1261                 1.9894                 1.9934
 Frc consts  --      1.7193                 0.8869                 0.9608
 IR Inten    --      0.4897                22.4918                 6.7262

                     37                     38                     39
                      A                      A                      A
 Frequencies --    908.6594               914.4945               936.9996
 Red. masses --      1.9830                 1.6687                 1.6984
 Frc consts  --      0.9647                 0.8222                 0.8786
 IR Inten    --     44.7753                33.9778                 5.7563

                     40                     41                     42
                      A                      A                      A
 Frequencies --    954.0601               972.5627               990.7681
 Red. masses --      3.1126                 1.5970                 1.2935
 Frc consts  --      1.6693                 0.8900                 0.7481
 IR Inten    --    159.1303                46.7894                 0.1768

                     43                     44                     45
                      A                      A                      A
 Frequencies --   1012.9531              1033.3018              1043.0292
 Red. masses --      1.8844                 1.1506                 3.4762
 Frc consts  --      1.1392                 0.7238                 2.2281
 IR Inten    --     88.7022                36.7951                16.9532

                     46                     47                     48
                      A                      A                      A
 Frequencies --   1074.4391              1137.6193              1144.3889
 Red. masses --      3.2564                 2.4594                 2.4072
 Frc consts  --      2.2149                 1.8753                 1.8574
 IR Inten    --     18.2910                 4.5793                25.1987

                     49                     50                     51
                      A                      A                      A
 Frequencies --   1159.7931              1187.5411              1206.1631
 Red. masses --      2.9423                 2.1121                 1.4544
 Frc consts  --      2.3318                 1.7549                 1.2467
 IR Inten    --      2.0578                 4.0230                 9.6738

                     52                     53                     54
                      A                      A                      A
 Frequencies --   1220.6878              1241.0239              1268.9882
 Red. masses --      1.6440                 1.9002                 1.5290
 Frc consts  --      1.4434                 1.7243                 1.4507
 IR Inten    --     29.3504                 2.5681                12.4916

                     55                     56                     57
                      A                      A                      A
 Frequencies --   1316.5707              1323.7813              1336.8366
 Red. masses --      1.2203                 1.3861                 1.5374
 Frc consts  --      1.2462                 1.4311                 1.6188
 IR Inten    --      2.0168                 0.6177                15.6114

                     58                     59                     60
                      A                      A                      A
 Frequencies --   1373.8314              1393.2108              1401.6042
 Red. masses --      1.3889                 1.5330                 1.9490
 Frc consts  --      1.5445                 1.7531                 2.2558
 IR Inten    --      4.2351                37.5490                 1.0748

                     61                     62                     63
                      A                      A                      A
 Frequencies --   1427.2439              1493.6738              1627.5174
 Red. masses --      1.5455                 1.2148                 6.9029
 Frc consts  --      1.8548                 1.5968                10.7729
 IR Inten    --     16.1259                 3.6606                 3.2874

                     64                     65                     66
                      A                      A                      A
 Frequencies --   1654.4259              1670.5611              1676.4530
 Red. masses --      5.0745                 3.4429                 1.3395
 Frc consts  --      8.1835                 5.6610                 2.2180
 IR Inten    --     97.7596                35.5711                15.2445

                     67                     68                     69
                      A                      A                      A
 Frequencies --   1705.3120              1974.2321              2405.8850
 Red. masses --      7.6499                10.6419                 1.0583
 Frc consts  --     13.1073                24.4380                 3.6092
 IR Inten    --      7.6040                39.6761                13.4992

                     70                     71                     72
                      A                      A                      A
 Frequencies --   3081.0868              3091.8561              3115.0005
 Red. masses --      1.0882                 1.0576                 1.0831
 Frc consts  --      6.0867                 5.9566                 6.1919
 IR Inten    --     25.0112                 3.8598                 0.5815

                     73                     74                     75
                      A                      A                      A
 Frequencies --   3136.8335              3150.8860              3167.6906
 Red. masses --      1.0881                 1.0880                 1.0872
 Frc consts  --      6.3079                 6.3643                 6.4275
 IR Inten    --      9.4942                 6.5956                 8.7529

                     76                     77                     78
                      A                      A                      A
 Frequencies --   3172.4595              3183.7170              3201.0582
 Red. masses --      1.1069                 1.0879                 1.0955
 Frc consts  --      6.5635                 6.4968                 6.6136
 IR Inten    --      3.0776                12.7234                 6.3433

                     79                     80                     81
                      A                      A                      A
 Frequencies --   3440.2819              3464.8050              3573.2274
 Red. masses --      1.0724                 1.0528                 1.0924
 Frc consts  --      7.4778                 7.4463                 8.2175
 IR Inten    --      4.9999                 1.1360                 5.1321

 - Thermochemistry -
 -------------------
 Temperature   298.150 Kelvin.  Pressure   1.00000 Atm.
 Atom     1 has atomic number  7 and mass  14.00307

 Molecular mass:   211.11095 amu.
 Principal axes and moments of inertia in atomic units:
                           1         2         3
     Eigenvalues --  1212.768999600.465799844.39275
           X            1.00000   0.00013  -0.00028
           Y           -0.00015   0.99922  -0.03961
           Z            0.00027   0.03961   0.99922
 This molecule is an asymmetric top.
 Rotational symmetry number  1.
 Warning -- assumption of classical behavior for rotation
           may cause significant error
 Rotational temperatures (Kelvin)      0.07142     0.00902     0.00880
 Rotational constants (GHZ):           1.48812     0.18798     0.18333
 Zero-point vibrational energy     581779.1 (Joules/Mol)
                                  139.04853 (Kcal/Mol)
 Warning -- explicit consideration of  25 degrees of freedom as
           vibrations may cause significant error
 Vibrational temperatures:     31.04    76.26    85.10    98.89   164.28
          (Kelvin)            175.56   188.52   198.10   244.69   252.82
                              307.72   322.52   356.22   401.30   440.75
                              470.55   497.21   564.56   616.72   650.80
                              687.42   714.82   756.88   794.62   868.31
                              908.48   966.64   983.56  1021.07  1045.57
                             1093.39  1106.21  1157.50  1209.99  1251.53
                             1301.31  1307.36  1315.75  1348.13  1372.68
                             1399.30  1425.49  1457.41  1486.69  1500.69
                             1545.88  1636.78  1646.52  1668.68  1708.61
                             1735.40  1756.30  1785.56  1825.79  1894.25
                             1904.63  1923.41  1976.64  2004.52  2016.60
                             2053.49  2149.06  2341.63  2380.35  2403.56
                             2412.04  2453.56  2840.48  3461.53  4433.00
                             4448.49  4481.79  4513.20  4533.42  4557.60
                             4564.46  4580.66  4605.61  4949.80  4985.08
                             5141.08

 Zero-point correction=                           0.221588 (Hartree/Particle)
 Thermal correction to Energy=                    0.238407
 Thermal correction to Enthalpy=                  0.239351
 Thermal correction to Gibbs Free Energy=         0.176273
 Sum of electronic and zero-point Energies=           -666.865633
 Sum of electronic and thermal Energies=              -666.848814
 Sum of electronic and thermal Enthalpies=            -666.847869
 Sum of electronic and thermal Free Energies=         -666.910948

                     E (Thermal)             CV                S
                      KCal/Mol        Cal/Mol-Kelvin    Cal/Mol-Kelvin
 Total                  149.603             62.238            132.760
 Electronic               0.000              0.000              0.000
 Translational            0.889              2.981             41.945
 Rotational               0.889              2.981             33.105
 Vibrational            147.825             56.276             57.710
 Vibration     1          0.593              1.985              6.484
 Vibration     2          0.596              1.976              4.702
 Vibration     3          0.597              1.974              4.486
 Vibration     4          0.598              1.969              4.189
 Vibration     5          0.607              1.938              3.197
 Vibration     6          0.610              1.931              3.068
 Vibration     7          0.612              1.922              2.931
 Vibration     8          0.614              1.916              2.836
 Vibration     9          0.625              1.879              2.435
 Vibration    10          0.628              1.872              2.373
 Vibration    11          0.644              1.820              2.010
 Vibration    12          0.649              1.804              1.925
 Vibration    13          0.661              1.767              1.748
 Vibration    14          0.679              1.713              1.540
 Vibration    15          0.697              1.662              1.382
 Vibration    16          0.711              1.621              1.275
 Vibration    17          0.724              1.584              1.186
 Vibration    18          0.760              1.486              0.991
 Vibration    19          0.790              1.408              0.863
 Vibration    20          0.811              1.356              0.789
 Vibration    21          0.834              1.299              0.716
 Vibration    22          0.852              1.257              0.666
 Vibration    23          0.881              1.192              0.596
 Vibration    24          0.908              1.135              0.539
 Vibration    25          0.962              1.024              0.444

                           ! Non-Optimized Parameters !
 Normal termination of Gaussian 16 at Thu May 18 09:30:03 2023.
