 Gaussian 16, Revision A.03,
 Gaussian 16:  ES64L-G16RevA.03 25-Dec-2016

 -----------------------------
 # opt freq b3lyp/6-31g(2df,p)
 -----------------------------

 -------------------
 Title Card Required
 -------------------
 Symbolic Z-matrix:
 Charge =  0 Multiplicity = 1

 SCF Done:  E(RB3LYP) =  -955.186191047     A.U. after   27 cycles
 SCF Done:  E(RB3LYP) =  -955.447425323     A.U. after   23 cycles
 SCF Done:  E(RB3LYP) =  -955.755166384     A.U. after   21 cycles
 SCF Done:  E(RB3LYP) =  -955.886520208     A.U. after   24 cycles
 SCF Done:  E(RB3LYP) =  -956.028700988     A.U. after   18 cycles
 SCF Done:  E(RB3LYP) =  -956.200119764     A.U. after   17 cycles
 SCF Done:  E(RB3LYP) =  -956.290448535     A.U. after   15 cycles
 SCF Done:  E(RB3LYP) =  -956.340969861     A.U. after   16 cycles
 SCF Done:  E(RB3LYP) =  -956.361730768     A.U. after   15 cycles
 SCF Done:  E(RB3LYP) =  -956.363141582     A.U. after   11 cycles
 SCF Done:  E(RB3LYP) =  -956.524785431     A.U. after   10 cycles
 SCF Done:  E(RB3LYP) =  -956.524825710     A.U. after   11 cycles
 SCF Done:  E(RB3LYP) =  -956.524858231     A.U. after   11 cycles
 SCF Done:  E(RB3LYP) =  -956.524878217     A.U. after   10 cycles
 SCF Done:  E(RB3LYP) =  -956.524893995     A.U. after   10 cycles
 SCF Done:  E(RB3LYP) =  -956.524898068     A.U. after    9 cycles
 SCF Done:  E(RB3LYP) =  -956.524900639     A.U. after    8 cycles
 SCF Done:  E(RB3LYP) =  -956.524900957     A.U. after    8 cycles
 SCF Done:  E(RB3LYP) =  -956.524901043     A.U. after    7 cycles
 Optimization completed.
    -- Stationary point found.
 Normal termination of Gaussian 16 at Fri May 19 19:52:02 2023.

 ----------------------------------------------------------------------
 #N Geom=AllCheck Guess=TCheck SCRF=Check GenChk RB3LYP/6-31G(2df,p) Fr
 eq
 ----------------------------------------------------------------------

 Structure from the checkpoint file:  "NNC1dc2cqNrccncc3cqnc2NN1rdC3NON.chk"
 -------------------
 Title Card Required
 -------------------
 Charge =  0 Multiplicity = 1

                         Standard orientation:
 ---------------------------------------------------------------------
 Center     Atomic      Atomic             Coordinates (Angstroms)
 Number     Number       Type             X           Y           Z
 ---------------------------------------------------------------------
      1          7           0        5.591837   -0.807426    1.095126
      2          7           0        5.034356   -1.543170    0.005874
      3          6           0        3.829559   -1.325800   -0.530653
      4          6           0        1.926071    0.144050   -0.377345
      5          6           0        1.371460    1.264083    0.166533
      6          7           0        2.030282    1.817056    1.322425
      7          6           0        0.157474    1.843182   -0.359621
      8          6           0       -0.647161    2.725852    0.257227
      9          7           0       -1.891291    3.167106   -0.227114
     10          6           0       -2.802359    2.311133   -0.514750
     11          6           0       -2.683984    0.859259   -0.400674
     12          6           0       -1.844498   -0.312511   -0.456305
     13          7           0       -0.802151   -0.916754   -0.804945
     14          6           0        0.108246   -0.945321   -1.772846
     15          7           0        1.374334   -0.570220   -1.458324
     16          7           0        3.169658   -0.312865    0.058329
     17          6           0       -3.084370   -0.265612    0.238402
     18          7           0       -3.916050   -0.835844    1.130111
     19          8           0       -3.844443   -2.219279    1.232087
     20          7           0       -4.399821   -2.817029    0.030543
     21          1           0        6.477964   -0.402373    0.805092
     22          1           0        5.778026   -1.442367    1.867066
     23          1           0        5.590042   -2.289406   -0.382649
     24          1           0        1.506021    1.617237    2.171475
     25          1           0        2.074705    2.829329    1.246190
     26          1           0       -0.150201    1.487436   -1.335773
     27          1           0       -0.373184    3.183880    1.205240
     28          1           0       -3.767587    2.702868   -0.841931
     29          1           0        2.089327   -0.923037   -2.082746
     30          1           0        3.580220    0.251924    0.802064
     31          1           0       -4.874069   -0.502538    1.169682
     32          1           0       -4.913345   -3.614438    0.404963
     33          1           0       -3.583085   -3.200168   -0.449352
 ---------------------------------------------------------------------

 SCF Done:  E(RB3LYP) =  -956.524901043     A.U. after    1 cycles

 The electronic state is 1-A.
 Alpha  occ. eigenvalues --  -19.22446 -14.42226 -14.38307 -14.37640 -14.36112
 Alpha  occ. eigenvalues --  -14.34782 -14.34025 -14.32785 -14.31938 -14.30999
 Alpha  occ. eigenvalues --  -10.25974 -10.24330 -10.24031 -10.23756 -10.21261
 Alpha  occ. eigenvalues --  -10.19682 -10.19470 -10.19161 -10.19159 -10.16975
 Alpha  occ. eigenvalues --   -1.12836  -0.99780  -0.96169  -0.94741  -0.92306
 Alpha  occ. eigenvalues --   -0.91886  -0.89134  -0.88576  -0.85527  -0.80417
 Alpha  occ. eigenvalues --   -0.79155  -0.76145  -0.71658  -0.67928  -0.64833
 Alpha  occ. eigenvalues --   -0.62124  -0.60787  -0.58207  -0.56179  -0.55456
 Alpha  occ. eigenvalues --   -0.53385  -0.52111  -0.51569  -0.51366  -0.50758
 Alpha  occ. eigenvalues --   -0.49344  -0.48619  -0.48089  -0.47414  -0.46077
 Alpha  occ. eigenvalues --   -0.44143  -0.42415  -0.41609  -0.40615  -0.40001
 Alpha  occ. eigenvalues --   -0.38429  -0.37056  -0.34313  -0.33753  -0.32338
 Alpha  occ. eigenvalues --   -0.31773  -0.29007  -0.28464  -0.28385  -0.27873
 Alpha  occ. eigenvalues --   -0.26015  -0.25543  -0.24683  -0.23663  -0.20211
 Alpha  occ. eigenvalues --   -0.16904  -0.15296
 Alpha virt. eigenvalues --   -0.05175  -0.00475   0.03095   0.03661   0.05523
 Alpha virt. eigenvalues --    0.06446   0.06487   0.06802   0.07867   0.08601
 Alpha virt. eigenvalues --    0.09067   0.09933   0.11331   0.12849   0.13976

 Mulliken charges:
               1
     1  N   -0.473548
     2  N   -0.221362
     3  C   -0.122214
     4  C    0.404705
     5  C    0.103313
     6  N   -0.606673
     7  C   -0.130463
     8  C   -0.086746
     9  N   -0.209564
    10  C   -0.123436
    11  C    0.077585
    12  C    0.321872
    13  N   -0.346768
    14  C   -0.179837
    15  N   -0.298252
    16  N   -0.298957
    17  C    0.237101
    18  N   -0.288359
    19  O   -0.236122
    20  N   -0.385804
    21  H    0.249722
    22  H    0.250079
    23  H    0.255115
    24  H    0.240798
    25  H    0.238510
    26  H    0.116887
    27  H    0.081229
    28  H    0.118031
    29  H    0.258496
    30  H    0.252986
    31  H    0.263424
    32  H    0.262486
    33  H    0.275764
 Sum of Mulliken charges =  -0.00000

 Dipole moment (field-independent basis, Debye):
    X=              1.0101    Y=             -1.5883    Z=              3.9956  Tot=              4.4167
 Quadrupole moment (field-independent basis, Debye-Ang):
   XX=            -58.0245   YY=           -110.7988   ZZ=           -117.2238
   XY=              3.0037   XZ=              3.8973   YZ=             -1.5757

  Exact polarizability: 295.306 -36.083 202.791  -7.922  17.645 128.849
 Approx polarizability: 421.321 -97.177 376.751 -40.925  46.229 229.708

                      1                      2                      3
                      A                      A                      A
 Frequencies --     26.3074                37.0282                49.9964
 Red. masses --      5.9507                 4.7433                 4.8305
 Frc consts  --      0.0024                 0.0038                 0.0071
 IR Inten    --      2.5452                 1.5131                 1.0232

                      4                      5                      6
                      A                      A                      A
 Frequencies --     76.4529                85.0690                93.6103
 Red. masses --      4.3789                 5.2795                 4.7267
 Frc consts  --      0.0151                 0.0225                 0.0244
 IR Inten    --      0.7691                 3.7337                 2.3761

                      7                      8                      9
                      A                      A                      A
 Frequencies --    114.4209               125.0444               138.0924
 Red. masses --      4.6559                 5.5251                 3.2501
 Frc consts  --      0.0359                 0.0509                 0.0365
 IR Inten    --      1.2164                 2.0347                18.6081

                     10                     11                     12
                      A                      A                      A
 Frequencies --    163.0736               179.9591               193.3094
 Red. masses --      3.9512                 4.0785                 3.0289
 Frc consts  --      0.0619                 0.0778                 0.0667
 IR Inten    --      4.5099                 9.0762                 5.9168

                     13                     14                     15
                      A                      A                      A
 Frequencies --    213.7858               222.4960               247.9666
 Red. masses --      1.5155                 1.5900                 1.3777
 Frc consts  --      0.0408                 0.0464                 0.0499
 IR Inten    --     75.0410                18.8165                24.6951

                     16                     17                     18
                      A                      A                      A
 Frequencies --    255.6791               262.4628               284.5450
 Red. masses --      3.7814                 3.4945                 3.7167
 Frc consts  --      0.1456                 0.1418                 0.1773
 IR Inten    --      2.5011                24.1955                26.4075

                     19                     20                     21
                      A                      A                      A
 Frequencies --    286.6698               330.3716               362.7139
 Red. masses --      4.5418                 4.3339                 5.7750
 Frc consts  --      0.2199                 0.2787                 0.4476
 IR Inten    --      1.2996                 1.7599                 4.3287

                     22                     23                     24
                      A                      A                      A
 Frequencies --    382.2497               382.9833               389.6798
 Red. masses --      4.1994                 3.3857                 3.7629
 Frc consts  --      0.3615                 0.2926                 0.3367
 IR Inten    --      2.0042                13.6517                 1.3694

                     25                     26                     27
                      A                      A                      A
 Frequencies --    438.8707               459.1286               503.0632
 Red. masses --      6.3500                 5.3705                 4.7201
 Frc consts  --      0.7206                 0.6670                 0.7038
 IR Inten    --      9.5533                12.8843                45.2423

                     28                     29                     30
                      A                      A                      A
 Frequencies --    515.6020               535.4645               567.1743
 Red. masses --      6.0951                 2.3936                 5.0628
 Frc consts  --      0.9547                 0.4044                 0.9596
 IR Inten    --     15.9904                76.5455                12.2698

                     31                     32                     33
                      A                      A                      A
 Frequencies --    601.5377               614.3818               625.4510
 Red. masses --      6.5695                 5.2831                 1.2032
 Frc consts  --      1.4006                 1.1749                 0.2773
 IR Inten    --     32.7451                37.0503                58.9956

                     34                     35                     36
                      A                      A                      A
 Frequencies --    644.7908               654.4371               683.5277
 Red. masses --      3.0947                 2.2004                 2.9540
 Frc consts  --      0.7581                 0.5553                 0.8132
 IR Inten    --    131.6138                20.5491                40.6184

                     37                     38                     39
                      A                      A                      A
 Frequencies --    690.8937               720.6554               757.7327
 Red. masses --      3.9266                 3.9651                 5.2633
 Frc consts  --      1.1043                 1.2133                 1.7805
 IR Inten    --     16.8666                40.9474                64.8536

                     40                     41                     42
                      A                      A                      A
 Frequencies --    806.5806               828.4611               842.9914
 Red. masses --      4.9930                 4.4345                 7.3610
 Frc consts  --      1.9139                 1.7933                 3.0820
 IR Inten    --      7.4030                 5.7085                 6.4249

                     43                     44                     45
                      A                      A                      A
 Frequencies --    846.9305               878.4317               886.6718
 Red. masses --      4.1546                 2.0214                 1.2656
 Frc consts  --      1.7558                 0.9190                 0.5863
 IR Inten    --     34.0589                12.0744                85.1706

                     46                     47                     48
                      A                      A                      A
 Frequencies --    890.6422               923.6335               933.6352
 Red. masses --      1.8257                 2.0330                 2.3530
 Frc consts  --      0.8533                 1.0218                 1.2084
 IR Inten    --    113.4192                15.8826                52.9773

                     49                     50                     51
                      A                      A                      A
 Frequencies --    986.3920              1013.6533              1015.9734
 Red. masses --      3.5510                 1.9009                 1.5241
 Frc consts  --      2.0356                 1.1507                 0.9269
 IR Inten    --      8.7820                66.2181                35.2080

                     52                     53                     54
                      A                      A                      A
 Frequencies --   1028.3243              1042.8061              1089.9163
 Red. masses --      3.5279                 2.9261                 3.3840
 Frc consts  --      2.1980                 1.8748                 2.3685
 IR Inten    --     16.1960                 4.3421                 5.8565

                     55                     56                     57
                      A                      A                      A
 Frequencies --   1164.8273              1207.7253              1214.3617
 Red. masses --      5.2393                 1.2880                 1.5157
 Frc consts  --      4.1884                 1.1069                 1.3170
 IR Inten    --    148.3458                 2.5781                54.3090

                     58                     59                     60
                      A                      A                      A
 Frequencies --   1225.5503              1279.5788              1281.5628
 Red. masses --      3.5393                 2.7185                 1.2268
 Frc consts  --      3.1320                 2.6225                 1.1872
 IR Inten    --     13.3973                77.4736                 8.6996

                     61                     62                     63
                      A                      A                      A
 Frequencies --   1295.3876              1311.0629              1317.0637
 Red. masses --      1.4687                 1.5642                 1.4679
 Frc consts  --      1.4521                 1.5841                 1.5003
 IR Inten    --     48.0749                 5.1007                16.9301

                     64                     65                     66
                      A                      A                      A
 Frequencies --   1323.3284              1342.2048              1377.7047
 Red. masses --      2.1911                 2.4684                 3.6975
 Frc consts  --      2.2607                 2.6200                 4.1350
 IR Inten    --      7.5986                92.6834                92.7407

                     67                     68                     69
                      A                      A                      A
 Frequencies --   1384.4550              1400.1924              1449.6900
 Red. masses --      3.3173                 1.4646                 1.2616
 Frc consts  --      3.7462                 1.6918                 1.5622
 IR Inten    --     21.6653                49.6465                33.6748

                     70                     71                     72
                      A                      A                      A
 Frequencies --   1475.0045              1490.7700              1500.8966
 Red. masses --      1.2869                 1.4771                 3.2200
 Frc consts  --      1.6497                 1.9341                 4.2737
 IR Inten    --      6.1109                73.4172               477.2499

                     73                     74                     75
                      A                      A                      A
 Frequencies --   1618.3511              1627.4153              1636.9729
 Red. masses --      8.9588                 1.4568                 1.0807
 Frc consts  --     13.8244                 2.2733                 1.7062
 IR Inten    --     78.8841                95.0323                21.0947

                     76                     77                     78
                      A                      A                      A
 Frequencies --   1663.0500              1668.5706              1701.4434
 Red. masses --      4.6982                 1.1415                 2.5835
 Frc consts  --      7.6558                 1.8725                 4.4064
 IR Inten    --      8.6438                26.4924               242.4020

                     79                     80                     81
                      A                      A                      A
 Frequencies --   1712.6115              1970.7464              3098.7667
 Red. masses --      9.4763                12.1419                 1.0863
 Frc consts  --     16.3760                27.7843                 6.1457
 IR Inten    --    436.5583               183.0261                37.3345

                     82                     83                     84
                      A                      A                      A
 Frequencies --   3144.5732              3194.6782              3426.7390
 Red. masses --      1.0870                 1.0870                 1.0483
 Frc consts  --      6.3331                 6.5362                 7.2526
 IR Inten    --     17.3341                 7.6179                 0.9155

                     85                     86                     87
                      A                      A                      A
 Frequencies --   3452.4220              3464.4541              3469.9398
 Red. masses --      1.0716                 1.0467                 1.0502
 Frc consts  --      7.5251                 7.4019                 7.4498
 IR Inten    --     27.4299                 0.1163                 0.7209

                     88                     89                     90
                      A                      A                      A
 Frequencies --   3525.5347              3526.6681              3540.3583
 Red. masses --      1.0839                 1.0869                 1.0902
 Frc consts  --      7.9377                 7.9647                 8.0509
 IR Inten    --     26.5189                 4.5316                 3.4472

                     91                     92                     93
                      A                      A                      A
 Frequencies --   3549.9318              3560.5117              3605.8836
 Red. masses --      1.0972                 1.0744                 1.0777
 Frc consts  --      8.1469                 8.0248                 8.2557
 IR Inten    --      2.5726                99.9402                63.2172

 - Thermochemistry -
 -------------------
 Temperature   298.150 Kelvin.  Pressure   1.00000 Atm.
 Atom     1 has atomic number  7 and mass  14.00307

 Molecular mass:   275.12431 amu.
 Principal axes and moments of inertia in atomic units:
                           1         2         3
     Eigenvalues --  3440.587149956.06659**********
           X            0.99998   0.00190   0.00632
           Y           -0.00197   0.99994   0.01046
           Z           -0.00630  -0.01047   0.99993
 This molecule is an asymmetric top.
 Rotational symmetry number  1.
 Warning -- assumption of classical behavior for rotation
           may cause significant error
 Rotational temperatures (Kelvin)      0.02517     0.00870     0.00723
 Rotational constants (GHZ):           0.52454     0.18127     0.15061
 Zero-point vibrational energy     658739.9 (Joules/Mol)
                                  157.44262 (Kcal/Mol)
 Warning -- explicit consideration of  32 degrees of freedom as
           vibrations may cause significant error
 Vibrational temperatures:     37.85    53.28    71.93   110.00   122.40
          (Kelvin)            134.68   164.63   179.91   198.68   234.63
                              258.92   278.13   307.59   320.12   356.77
                              367.87   377.63   409.40   412.45   475.33
                              521.86   549.97   551.03   560.66   631.44
                              660.58   723.80   741.84   770.41   816.04
                              865.48   883.96   899.88   927.71   941.59
                              983.44   994.04  1036.86  1090.21  1160.49
                             1191.97  1212.88  1218.54  1263.87  1275.72
                             1281.44  1328.90  1343.29  1419.20  1458.42
                             1461.76  1479.53  1500.37  1568.15  1675.93
                             1737.65  1747.20  1763.29  1841.03  1843.88
                             1863.77  1886.33  1894.96  1903.97  1931.13
                             1982.21  1991.92  2014.56  2085.78  2122.20
                             2144.89  2159.46  2328.45  2341.49  2355.24
                             2392.76  2400.70  2448.00  2464.07  2835.46
                             4458.43  4524.34  4596.43  4930.31  4967.27
                             4984.58  4992.47  5072.46  5074.09  5093.79
                             5107.56  5122.78  5188.06

 Zero-point correction=                           0.250901 (Hartree/Particle)
 Thermal correction to Energy=                    0.270990
 Thermal correction to Enthalpy=                  0.271934
 Thermal correction to Gibbs Free Energy=         0.201670
 Sum of electronic and zero-point Energies=           -956.274000
 Sum of electronic and thermal Energies=              -956.253911
 Sum of electronic and thermal Enthalpies=            -956.252967
 Sum of electronic and thermal Free Energies=         -956.323231

                     E (Thermal)             CV                S
                      KCal/Mol        Cal/Mol-Kelvin    Cal/Mol-Kelvin
 Total                  170.049             74.439            147.882
 Electronic               0.000              0.000              0.000
 Translational            0.889              2.981             42.735
 Rotational               0.889              2.981             34.372
 Vibrational            168.271             68.477             70.775
 Vibration     1          0.593              1.985              6.090
 Vibration     2          0.594              1.982              5.412
 Vibration     3          0.595              1.978              4.818
 Vibration     4          0.599              1.965              3.980
 Vibration     5          0.601              1.960              3.770
 Vibration     6          0.603              1.954              3.583
 Vibration     7          0.607              1.937              3.192
 Vibration     8          0.610              1.928              3.021
 Vibration     9          0.614              1.915              2.830
 Vibration    10          0.623              1.888              2.514
 Vibration    11          0.629              1.867              2.329
 Vibration    12          0.635              1.849              2.196
 Vibration    13          0.644              1.820              2.011
 Vibration    14          0.648              1.807              1.939
 Vibration    15          0.662              1.766              1.745
 Vibration    16          0.666              1.753              1.691
 Vibration    17          0.670              1.742              1.645
 Vibration    18          0.683              1.702              1.506
 Vibration    19          0.684              1.698              1.494
 Vibration    20          0.713              1.615              1.258
 Vibration    21          0.737              1.549              1.110
 Vibration    22          0.752              1.508              1.030
 Vibration    23          0.752              1.506              1.027
 Vibration    24          0.758              1.492              1.001
 Vibration    25          0.799              1.385              0.830
 Vibration    26          0.817              1.341              0.769
 Vibration    27          0.858              1.243              0.651
 Vibration    28          0.871              1.215              0.620
 Vibration    29          0.890              1.172              0.575
 Vibration    30          0.923              1.102              0.510
 Vibration    31          0.960              1.029              0.447
 Vibration    32          0.974              1.001              0.426

                           ! Non-Optimized Parameters !
 Normal termination of Gaussian 16 at Sat May 20 00:03:43 2023.
