 Gaussian 16, Revision A.03,
 Gaussian 16:  ES64L-G16RevA.03 25-Dec-2016

 -----------------------------
 # opt freq b3lyp/6-31g(2df,p)
 -----------------------------

 -------------------
 Title Card Required
 -------------------
 Symbolic Z-matrix:
 Charge =  0 Multiplicity = 2

 SCF Done:  E(UB3LYP) =  -590.539647141     A.U. after   21 cycles
 SCF Done:  E(UB3LYP) =  -590.556613466     A.U. after   19 cycles
 SCF Done:  E(UB3LYP) =  -590.565588269     A.U. after   20 cycles
 SCF Done:  E(UB3LYP) =  -590.567278957     A.U. after   18 cycles
 SCF Done:  E(UB3LYP) =  -590.567607778     A.U. after   16 cycles
 SCF Done:  E(UB3LYP) =  -590.567704259     A.U. after   16 cycles
 SCF Done:  E(UB3LYP) =  -590.567768018     A.U. after   13 cycles
 SCF Done:  E(UB3LYP) =  -590.567781377     A.U. after   13 cycles
 SCF Done:  E(UB3LYP) =  -590.567783676     A.U. after   11 cycles
 SCF Done:  E(UB3LYP) =  -590.567784717     A.U. after   11 cycles
 SCF Done:  E(UB3LYP) =  -590.567785085     A.U. after   11 cycles
 SCF Done:  E(UB3LYP) =  -590.567785190     A.U. after   10 cycles
 SCF Done:  E(UB3LYP) =  -590.567785219     A.U. after    9 cycles
 Optimization completed.
    -- Stationary point found.
 Normal termination of Gaussian 16 at Wed May 17 03:37:05 2023.

 ----------------------------------------------------------------------
 #N Geom=AllCheck Guess=TCheck SCRF=Check GenChk UB3LYP/6-31G(2df,p) Fr
 eq
 ----------------------------------------------------------------------

 Structure from the checkpoint file:  "NNC[N]c1ccc2cccccc1-2.chk"
 -------------------
 Title Card Required
 -------------------
 Charge =  0 Multiplicity = 2

                         Standard orientation:
 ---------------------------------------------------------------------
 Center     Atomic      Atomic             Coordinates (Angstroms)
 Number     Number       Type             X           Y           Z
 ---------------------------------------------------------------------
      1          7           0       -4.657803   -1.204918    0.072374
      2          7           0       -3.916057   -0.018017   -0.206775
      3          6           0       -2.487375   -0.283268   -0.062769
      4          7           0       -1.815193    0.981033   -0.021999
      5          6           0       -0.518096    1.098763   -0.000080
      6          6           0        0.091772    2.420768    0.027028
      7          6           0        1.451705    2.329033    0.027727
      8          6           0        1.846135    0.953203    0.008767
      9          6           0        3.155156    0.524538    0.005042
     10          6           0        3.662264   -0.787127   -0.006526
     11          6           0        2.946301   -1.980177   -0.006645
     12          6           0        1.568820   -2.185257    0.001461
     13          6           0        0.529662   -1.231666    0.002860
     14          6           0        0.602862    0.142544   -0.003119
     15          1           0       -5.554898   -1.122041   -0.393474
     16          1           0       -4.844074   -1.305427    1.071698
     17          1           0       -4.146332    0.745930    0.427004
     18          1           0       -2.178548   -0.911476   -0.912777
     19          1           0       -2.275316   -0.867884    0.859059
     20          1           0       -0.504058    3.323350    0.036101
     21          1           0        2.153717    3.152953    0.039138
     22          1           0        3.902162    1.316575    0.012487
     23          1           0        4.744437   -0.876790   -0.011786
     24          1           0        3.549707   -2.885406   -0.011736
     25          1           0        1.244690   -3.221649    0.004725
     26          1           0       -0.463352   -1.662941    0.011884
 ---------------------------------------------------------------------

 SCF Done:  E(UB3LYP) =  -590.567785219     A.U. after    1 cycles

 The electronic state is 2-A.
 Alpha  occ. eigenvalues --  -14.32534 -14.32098 -14.30855 -10.21760 -10.21457
 Alpha  occ. eigenvalues --  -10.20977 -10.20869 -10.20796 -10.20721 -10.20415
 Alpha  occ. eigenvalues --  -10.20215 -10.20088 -10.18689 -10.18617  -0.95151
 Alpha  occ. eigenvalues --   -0.90999  -0.86482  -0.82584  -0.79008  -0.76283
 Alpha  occ. eigenvalues --   -0.74374  -0.69267  -0.65355  -0.64130  -0.59146
 Alpha  occ. eigenvalues --   -0.55387  -0.54396  -0.52559  -0.50656  -0.48803
 Alpha  occ. eigenvalues --   -0.47406  -0.45851  -0.44486  -0.43965  -0.42373
 Alpha  occ. eigenvalues --   -0.41694  -0.40061  -0.39651  -0.38549  -0.37315
 Alpha  occ. eigenvalues --   -0.36372  -0.34647  -0.34416  -0.31314  -0.28062
 Alpha  occ. eigenvalues --   -0.24414  -0.24386  -0.24138  -0.21619  -0.16182
 Alpha virt. eigenvalues --   -0.07538  -0.03122   0.07563   0.08323   0.08706
 Alpha virt. eigenvalues --    0.10568   0.11182   0.13045   0.13322   0.13579
 Alpha virt. eigenvalues --    0.14298   0.16143   0.16732   0.17074   0.18650

  Beta  occ. eigenvalues --  -14.32536 -14.32100 -14.30103 -10.21800 -10.21632
  Beta  occ. eigenvalues --  -10.21139 -10.21052 -10.20899 -10.20482 -10.20084
  Beta  occ. eigenvalues --  -10.19831 -10.19680 -10.18773 -10.18421  -0.94993
  Beta  occ. eigenvalues --   -0.90253  -0.85800  -0.82197  -0.78650  -0.76128
  Beta  occ. eigenvalues --   -0.74163  -0.68517  -0.65172  -0.63914  -0.58892
  Beta  occ. eigenvalues --   -0.55098  -0.54174  -0.52302  -0.50575  -0.48684
  Beta  occ. eigenvalues --   -0.47248  -0.45722  -0.44199  -0.43640  -0.42056
  Beta  occ. eigenvalues --   -0.41251  -0.39933  -0.38724  -0.38377  -0.37141
  Beta  occ. eigenvalues --   -0.36180  -0.34300  -0.33591  -0.30216  -0.26003
  Beta  occ. eigenvalues --   -0.24349  -0.23541  -0.23146  -0.21450
  Beta virt. eigenvalues --   -0.08962  -0.07354  -0.01231   0.07621   0.08660
  Beta virt. eigenvalues --    0.09409   0.10613   0.12168   0.13129   0.13567
  Beta virt. eigenvalues --    0.14353   0.14830   0.16259   0.16835   0.17113

 Mulliken charges and spin densities:
               1          2
     1  N   -0.473650  -0.000407
     2  N   -0.300608   0.000321
     3  C   -0.038746  -0.021856
     4  N   -0.356410   0.379730
     5  C    0.259526  -0.109949
     6  C   -0.145571   0.158911
     7  C   -0.180326  -0.075628
     8  C    0.193071   0.170507
     9  C   -0.139960  -0.083045
    10  C   -0.116855   0.274363
    11  C   -0.079331  -0.127238
    12  C   -0.116863   0.290882
    13  C   -0.162914  -0.112335
    14  C    0.069542   0.227372
    15  H    0.240292  -0.000019
    16  H    0.217789  -0.000034
    17  H    0.210746  -0.000327
    18  H    0.111600   0.020592
    19  H    0.076075   0.025228
    20  H    0.112358  -0.006680
    21  H    0.104022   0.002473
    22  H    0.097117   0.002651
    23  H    0.099069  -0.011885
    24  H    0.103566   0.005119
    25  H    0.100105  -0.012580
    26  H    0.116355   0.003833
 Sum of Mulliken charges =  -0.00000   1.00000

 Dipole moment (field-independent basis, Debye):
    X=              2.0756    Y=             -0.8477    Z=              1.4857  Tot=              2.6896
 Quadrupole moment (field-independent basis, Debye-Ang):
   XX=            -67.0134   YY=            -76.3414   ZZ=            -83.9434
   XY=              0.9018   XZ=             -6.6495   YZ=             -0.1162

  Exact polarizability: 234.684 -20.287 175.547  -1.267   0.104  64.208
 Approx polarizability: 389.611 -67.889 332.293  -0.245   0.396 107.674

                      1                      2                      3
                      A                      A                      A
 Frequencies --     37.0716                81.9111               102.9184
 Red. masses --      4.0897                 3.6131                 4.2056
 Frc consts  --      0.0033                 0.0143                 0.0262
 IR Inten    --      1.0350                 5.3995                 1.2020

                      4                      5                      6
                      A                      A                      A
 Frequencies --    140.4311               161.8265               215.8893
 Red. masses --      2.4745                 4.1336                 2.7363
 Frc consts  --      0.0288                 0.0638                 0.0751
 IR Inten    --      6.5004                 1.0065                 4.1515

                      7                      8                      9
                      A                      A                      A
 Frequencies --    242.5526               286.9245               304.9448
 Red. masses --      4.5813                 1.3398                 3.6134
 Frc consts  --      0.1588                 0.0650                 0.1980
 IR Inten    --      1.9567                31.0904                 0.5876

                     10                     11                     12
                      A                      A                      A
 Frequencies --    319.3956               332.1668               380.3397
 Red. masses --      3.9642                 3.5810                 4.0607
 Frc consts  --      0.2383                 0.2328                 0.3461
 IR Inten    --      6.3352                 4.2080                12.6535

                     13                     14                     15
                      A                      A                      A
 Frequencies --    406.9600               441.2458               492.9099
 Red. masses --      6.5762                 3.2571                 5.6966
 Frc consts  --      0.6417                 0.3736                 0.8155
 IR Inten    --      0.5627                 0.0723                 2.3661

                     16                     17                     18
                      A                      A                      A
 Frequencies --    555.7440               578.1611               655.4947
 Red. masses --      4.4181                 2.8232                 2.9233
 Frc consts  --      0.8040                 0.5560                 0.7401
 IR Inten    --      0.2116                 6.1115                 6.2344

                     19                     20                     21
                      A                      A                      A
 Frequencies --    672.6623               696.4915               728.0810
 Red. masses --      5.4803                 6.6288                 1.9982
 Frc consts  --      1.4610                 1.8946                 0.6241
 IR Inten    --      0.2685                 6.6097                 1.4157

                     22                     23                     24
                      A                      A                      A
 Frequencies --    756.0969               779.2917               812.8736
 Red. masses --      1.6707                 5.4019                 1.6214
 Frc consts  --      0.5627                 1.9328                 0.6312
 IR Inten    --     31.5455                 4.6853                53.5256

                     25                     26                     27
                      A                      A                      A
 Frequencies --    818.5541               864.4321               895.4085
 Red. masses --      1.3492                 1.6216                 5.9175
 Frc consts  --      0.5326                 0.7139                 2.7953
 IR Inten    --      9.3392                11.5119                 3.4439

                     28                     29                     30
                      A                      A                      A
 Frequencies --    945.0341               951.4583               960.9614
 Red. masses --      1.3579                 1.6665                 2.6577
 Frc consts  --      0.7145                 0.8889                 1.4460
 IR Inten    --      4.4678               107.5577                 9.0250

                     31                     32                     33
                      A                      A                      A
 Frequencies --    972.5492               981.1077               996.2700
 Red. masses --      1.4180                 1.4542                 1.3108
 Frc consts  --      0.7902                 0.8247                 0.7665
 IR Inten    --      3.0409                 4.7810                 0.1349

                     34                     35                     36
                      A                      A                      A
 Frequencies --   1010.7102              1019.6051              1025.3131
 Red. masses --      3.5532                 3.3272                 2.2076
 Frc consts  --      2.1385                 2.0380                 1.3673
 IR Inten    --     11.7839                 3.6718                15.5965

                     37                     38                     39
                      A                      A                      A
 Frequencies --   1067.3050              1097.8865              1123.6261
 Red. masses --      1.4186                 2.2869                 2.2464
 Frc consts  --      0.9521                 1.6241                 1.6710
 IR Inten    --     15.0770                 7.0399                 2.8128

                     40                     41                     42
                      A                      A                      A
 Frequencies --   1153.3942              1185.3090              1209.6946
 Red. masses --      2.3172                 1.6702                 2.1769
 Frc consts  --      1.8163                 1.3826                 1.8769
 IR Inten    --      4.8705                 7.7338                 1.1126

                     43                     44                     45
                      A                      A                      A
 Frequencies --   1238.0616              1247.8606              1268.9172
 Red. masses --      1.4470                 1.6097                 3.5827
 Frc consts  --      1.3068                 1.4768                 3.3988
 IR Inten    --      3.7738                27.9559                 7.6578

                     46                     47                     48
                      A                      A                      A
 Frequencies --   1319.8733              1323.0871              1347.0977
 Red. masses --      1.2985                 1.2459                 1.5283
 Frc consts  --      1.3327                 1.2851                 1.6340
 IR Inten    --     14.3474                32.4699                15.9175

                     49                     50                     51
                      A                      A                      A
 Frequencies --   1374.3617              1401.6604              1439.4609
 Red. masses --      1.3339                 2.3374                 1.6922
 Frc consts  --      1.4845                 2.7057                 2.0658
 IR Inten    --     75.9124                 3.7768                30.8424

                     52                     53                     54
                      A                      A                      A
 Frequencies --   1462.3658              1475.0112              1484.1558
 Red. masses --      2.7045                 1.5957                 1.4235
 Frc consts  --      3.4076                 2.0454                 1.8474
 IR Inten    --    122.9458                57.4640                 0.9256

                     55                     56                     57
                      A                      A                      A
 Frequencies --   1499.4385              1555.1234              1572.2733
 Red. masses --      1.1309                 3.7965                 4.1351
 Frc consts  --      1.4980                 5.4096                 6.0227
 IR Inten    --     25.4930                22.4428                33.3966

                     58                     59                     60
                      A                      A                      A
 Frequencies --   1610.5298              1633.6105              1671.9259
 Red. masses --      7.5076                 4.5308                 1.0856
 Frc consts  --     11.4733                 7.1240                 1.7880
 IR Inten    --     17.9001                 5.7495                10.0975

                     61                     62                     63
                      A                      A                      A
 Frequencies --   2846.6066              2979.2231              3138.1083
 Red. masses --      1.0713                 1.0833                 1.0845
 Frc consts  --      5.1145                 5.6651                 6.2924
 IR Inten    --     51.0071                26.4208                 9.7723

                     64                     65                     66
                      A                      A                      A
 Frequencies --   3145.7778              3169.2923              3178.3269
 Red. masses --      1.0850                 1.0876                 1.0919
 Frc consts  --      6.3263                 6.4363                 6.4986
 IR Inten    --      8.2685                14.1101                22.0510

                     67                     68                     69
                      A                      A                      A
 Frequencies --   3210.4484              3219.9113              3237.4581
 Red. masses --      1.0892                 1.0868                 1.1009
 Frc consts  --      6.6143                 6.6389                 6.7982
 IR Inten    --      4.3601                 3.8347                 5.5262

                     70                     71                     72
                      A                      A                      A
 Frequencies --   3404.8850              3448.0728              3551.5896
 Red. masses --      1.0566                 1.0736                 1.0855
 Frc consts  --      7.2172                 7.5206                 8.0669
 IR Inten    --     21.0067                 1.5659                 0.3180

 - Thermochemistry -
 -------------------
 Temperature   298.150 Kelvin.  Pressure   1.00000 Atm.
 Atom     1 has atomic number  7 and mass  14.00307

 Molecular mass:   186.10312 amu.
 Principal axes and moments of inertia in atomic units:
                           1         2         3
     Eigenvalues --  1368.576894547.938155889.33073
           X            0.99997   0.00682  -0.00373
           Y           -0.00682   0.99998  -0.00088
           Z            0.00372   0.00090   0.99999
 This molecule is an asymmetric top.
 Rotational symmetry number  1.
 Warning -- assumption of classical behavior for rotation
           may cause significant error
 Rotational temperatures (Kelvin)      0.06329     0.01904     0.01471
 Rotational constants (GHZ):           1.31870     0.39683     0.30644
 Zero-point vibrational energy     555758.2 (Joules/Mol)
                                  132.82940 (Kcal/Mol)
 Warning -- explicit consideration of  17 degrees of freedom as
           vibrations may cause significant error
 Vibrational temperatures:     53.34   117.85   148.08   202.05   232.83
          (Kelvin)            310.62   348.98   412.82   438.75   459.54
                              477.91   547.22   585.52   634.85   709.19
                              799.59   831.84   943.11   967.81  1002.10
                             1047.55  1087.85  1121.23  1169.54  1177.72
                             1243.72  1288.29  1359.69  1368.94  1382.61
                             1399.28  1411.60  1433.41  1454.19  1466.98
                             1475.20  1535.61  1579.61  1616.65  1659.48
                             1705.40  1740.48  1781.29  1795.39  1825.69
                             1899.00  1903.63  1938.17  1977.40  2016.68
                             2071.06  2104.02  2122.21  2135.37  2157.36
                             2237.48  2262.15  2317.19  2350.40  2405.53
                             4095.63  4286.44  4515.04  4526.07  4559.90
                             4572.90  4619.12  4632.73  4657.98  4898.87
                             4961.01  5109.95

 Zero-point correction=                           0.211677 (Hartree/Particle)
 Thermal correction to Energy=                    0.223834
 Thermal correction to Enthalpy=                  0.224778
 Thermal correction to Gibbs Free Energy=         0.172225
 Sum of electronic and zero-point Energies=           -590.356108
 Sum of electronic and thermal Energies=              -590.343952
 Sum of electronic and thermal Enthalpies=            -590.343007
 Sum of electronic and thermal Free Energies=         -590.395560

                     E (Thermal)             CV                S
                      KCal/Mol        Cal/Mol-Kelvin    Cal/Mol-Kelvin
 Total                  140.458             47.680            110.607
 Electronic               0.000              0.000              1.377
 Translational            0.889              2.981             41.569
 Rotational               0.889              2.981             31.972
 Vibrational            138.680             41.719             35.688
 Vibration     1          0.594              1.982              5.410
 Vibration     2          0.600              1.962              3.845
 Vibration     3          0.605              1.947              3.398
 Vibration     4          0.615              1.913              2.798
 Vibration     5          0.622              1.889              2.528
 Vibration     6          0.645              1.817              1.993
 Vibration     7          0.659              1.775              1.784
 Vibration     8          0.684              1.698              1.492
 Vibration     9          0.696              1.664              1.390
 Vibration    10          0.705              1.636              1.313
 Vibration    11          0.714              1.611              1.250
 Vibration    12          0.750              1.512              1.038
 Vibration    13          0.772              1.455              0.937
 Vibration    14          0.801              1.380              0.823
 Vibration    15          0.849              1.266              0.676
 Vibration    16          0.911              1.127              0.532
 Vibration    17          0.935              1.079              0.489

 Optimization completed.
    -- Stationary point found.
 Normal termination of Gaussian 16 at Wed May 17 06:37:12 2023.
