 Gaussian 16, Revision A.03,
 Gaussian 16:  ES64L-G16RevA.03 25-Dec-2016

 -----------------------------
 # opt freq b3lyp/6-31g(2df,p)
 -----------------------------

 -------------------
 Title Card Required
 -------------------
 Symbolic Z-matrix:
 Charge =  0 Multiplicity = 2

 SCF Done:  E(UB3LYP) =  -771.573609558     A.U. after   19 cycles
 SCF Done:  E(UB3LYP) =  -771.589499722     A.U. after   16 cycles
 SCF Done:  E(UB3LYP) =  -771.596029106     A.U. after   16 cycles
 SCF Done:  E(UB3LYP) =  -771.599898427     A.U. after   16 cycles
 SCF Done:  E(UB3LYP) =  -771.602025223     A.U. after   16 cycles
 SCF Done:  E(UB3LYP) =  -771.603303329     A.U. after   16 cycles
 SCF Done:  E(UB3LYP) =  -771.604202668     A.U. after   16 cycles
 SCF Done:  E(UB3LYP) =  -771.604880384     A.U. after   14 cycles
 SCF Done:  E(UB3LYP) =  -771.605189241     A.U. after   15 cycles
 SCF Done:  E(UB3LYP) =  -771.605540484     A.U. after   16 cycles
 SCF Done:  E(UB3LYP) =  -771.606157929     A.U. after   19 cycles
 SCF Done:  E(UB3LYP) =  -771.606350679     A.U. after   16 cycles
 SCF Done:  E(UB3LYP) =  -771.606503127     A.U. after   15 cycles
 SCF Done:  E(UB3LYP) =  -771.606525564     A.U. after   13 cycles
 SCF Done:  E(UB3LYP) =  -771.606530750     A.U. after   12 cycles
 SCF Done:  E(UB3LYP) =  -771.606532065     A.U. after   10 cycles
 SCF Done:  E(UB3LYP) =  -771.606532345     A.U. after    9 cycles
 SCF Done:  E(UB3LYP) =  -771.606532416     A.U. after    9 cycles
 SCF Done:  E(UB3LYP) =  -771.606532442     A.U. after    7 cycles
 Optimization completed.
    -- Stationary point found.
 Normal termination of Gaussian 16 at Thu May 18 05:34:02 2023.

 ----------------------------------------------------------------------
 #N Geom=AllCheck Guess=TCheck SCRF=Check GenChk UB3LYP/6-31G(2df,p) Fr
 eq
 ----------------------------------------------------------------------

 Structure from the checkpoint file:  "NNCNdNC1CdNCqdOrCNdC[CH]NC1.chk"
 -------------------
 Title Card Required
 -------------------
 Charge =  0 Multiplicity = 2

                         Standard orientation:
 ---------------------------------------------------------------------
 Center     Atomic      Atomic             Coordinates (Angstroms)
 Number     Number       Type             X           Y           Z
 ---------------------------------------------------------------------
      1          7           0       -5.610154    0.667980    0.145867
      2          7           0       -4.217796    0.717984   -0.162493
      3          6           0       -3.591154   -0.530143    0.239149
      4          7           0       -2.141392   -0.336421    0.143006
      5          7           0       -1.562618   -1.255932   -0.447593
      6          6           0       -0.090059   -1.066390   -0.526690
      7          6           0        0.409910    0.203947    0.129534
      8          7           0        0.860220    1.163923   -0.558527
      9          6           0        1.655863    2.200353   -0.079525
     10          8           0        1.282549    3.311691    0.195026
     11          6           0        3.178037    1.811335   -0.119536
     12          7           0        3.439758    0.541352    0.519380
     13          6           0        3.036437   -0.502749   -0.154051
     14          6           0        2.901687   -1.786348    0.406247
     15          7           0        1.934270   -2.643461   -0.121626
     16          6           0        0.498752   -2.351445    0.107037
     17          1           0       -6.084537    1.305167   -0.484581
     18          1           0       -5.793579    0.985835    1.098205
     19          1           0       -3.742926    1.485310    0.310636
     20          1           0       -3.941092   -1.349284   -0.396694
     21          1           0       -3.787089   -0.794682    1.296064
     22          1           0        0.149556   -1.038010   -1.594866
     23          1           0        0.432856    0.202633    1.225705
     24          1           0        3.703391    2.619605    0.391691
     25          1           0        3.458367    1.827381   -1.186106
     26          1           0        2.671225   -0.417285   -1.184224
     27          1           0        3.454236   -2.070366    1.300118
     28          1           0        2.098527   -3.604011    0.153070
     29          1           0        0.274509   -2.318453    1.186063
     30          1           0       -0.066692   -3.186695   -0.314386
 ---------------------------------------------------------------------

 SCF Done:  E(UB3LYP) =  -771.606532442     A.U. after    1 cycles

 The electronic state is 2-A.
 Alpha  occ. eigenvalues --  -19.12339 -14.39701 -14.39299 -14.36255 -14.34743
 Alpha  occ. eigenvalues --  -14.34559 -14.34338 -14.32311 -10.28967 -10.25742
 Alpha  occ. eigenvalues --  -10.24535 -10.23956 -10.23788 -10.22903 -10.21603
 Alpha  occ. eigenvalues --  -10.21350  -1.05409  -1.04615  -0.96725  -0.95326
 Alpha  occ. eigenvalues --   -0.93831  -0.91220  -0.83416  -0.78612  -0.75951
 Alpha  occ. eigenvalues --   -0.70691  -0.67985  -0.67248  -0.62287  -0.57717
 Alpha  occ. eigenvalues --   -0.56900  -0.56063  -0.53342  -0.52185  -0.50247
 Alpha  occ. eigenvalues --   -0.49811  -0.48130  -0.47823  -0.47304  -0.47071
 Alpha  occ. eigenvalues --   -0.45633  -0.44654  -0.43542  -0.42913  -0.41405
 Alpha  occ. eigenvalues --   -0.40470  -0.38968  -0.37882  -0.36503  -0.35826
 Alpha  occ. eigenvalues --   -0.34947  -0.32379  -0.29472  -0.28589  -0.26340
 Alpha  occ. eigenvalues --   -0.25556  -0.25023  -0.24165  -0.23360  -0.18968
 Alpha virt. eigenvalues --   -0.05533  -0.03596  -0.00616   0.02585   0.06883
 Alpha virt. eigenvalues --    0.07212   0.10291   0.11306   0.11849   0.12512
 Alpha virt. eigenvalues --    0.13286   0.14284   0.14783   0.15013   0.15480

  Beta  occ. eigenvalues --  -19.12312 -14.39700 -14.39296 -14.36071 -14.34743
  Beta  occ. eigenvalues --  -14.34575 -14.34338 -14.31505 -10.28894 -10.25730
  Beta  occ. eigenvalues --  -10.24433 -10.23955 -10.23788 -10.22006 -10.21849
  Beta  occ. eigenvalues --  -10.21391  -1.05405  -1.04552  -0.96720  -0.94816
  Beta  occ. eigenvalues --   -0.93448  -0.90123  -0.83345  -0.78487  -0.75311
  Beta  occ. eigenvalues --   -0.70402  -0.67865  -0.66517  -0.62089  -0.57546
  Beta  occ. eigenvalues --   -0.56635  -0.55703  -0.53058  -0.51983  -0.50173
  Beta  occ. eigenvalues --   -0.49503  -0.47994  -0.47605  -0.47094  -0.46814
  Beta  occ. eigenvalues --   -0.45395  -0.44349  -0.43257  -0.42720  -0.41198
  Beta  occ. eigenvalues --   -0.40343  -0.38923  -0.37692  -0.36385  -0.35444
  Beta  occ. eigenvalues --   -0.33763  -0.31431  -0.29043  -0.27153  -0.26306
  Beta  occ. eigenvalues --   -0.24916  -0.24502  -0.24009  -0.23225
  Beta virt. eigenvalues --   -0.08578  -0.05496  -0.03516  -0.00132   0.04394
  Beta virt. eigenvalues --    0.06981   0.07296   0.10311   0.11411   0.12078
  Beta virt. eigenvalues --    0.12808   0.13351   0.14354   0.15017   0.15251

 Mulliken charges and spin densities:
               1          2
     1  N   -0.465747   0.000005
     2  N   -0.288618   0.000010
     3  C   -0.015182  -0.000089
     4  N   -0.131712   0.000966
     5  N   -0.129706   0.000257
     6  C    0.010765  -0.001114
     7  C   -0.006057   0.006594
     8  N   -0.150238  -0.006757
     9  C    0.354441   0.024379
    10  O   -0.300586   0.009180
    11  C   -0.260169  -0.023972
    12  N   -0.210808   0.402250
    13  C    0.042748  -0.155490
    14  C   -0.123761   0.616016
    15  N   -0.279420   0.077680
    16  C   -0.167145   0.026435
    17  H    0.248619   0.000000
    18  H    0.226115   0.000001
    19  H    0.226955  -0.000005
    20  H    0.125651   0.000068
    21  H    0.094831   0.000015
    22  H    0.126994   0.001346
    23  H    0.122397  -0.000567
    24  H    0.130764   0.002438
    25  H    0.123327   0.018232
    26  H    0.096464   0.005607
    27  H    0.112471  -0.016837
    28  H    0.242594   0.000531
    29  H    0.108650   0.012133
    30  H    0.135362   0.000688
 Sum of Mulliken charges =  -0.00000   1.00000

 Dipole moment (field-independent basis, Debye):
    X=             -1.4629    Y=             -3.8982    Z=              1.3654  Tot=              4.3818
 Quadrupole moment (field-independent basis, Debye-Ang):
   XX=            -89.7837   YY=            -93.3808   ZZ=            -92.2373
   XY=            -13.7122   XZ=             -8.7927   YZ=             -3.3748

  Exact polarizability: 170.430   6.380 167.307  -2.262  -0.699  96.911
 Approx polarizability: 207.019   9.998 265.041  -3.862   6.992 168.431

                      1                      2                      3
                      A                      A                      A
 Frequencies --     30.3770                45.1209                64.0600
 Red. masses --      4.1180                 5.3706                 2.8517
 Frc consts  --      0.0022                 0.0064                 0.0069
 IR Inten    --      2.8435                 3.1936                 5.4577

                      4                      5                      6
                      A                      A                      A
 Frequencies --     73.4207                92.2119                99.0509
 Red. masses --      4.7375                 4.8016                 6.0075
 Frc consts  --      0.0150                 0.0241                 0.0347
 IR Inten    --      2.9056                 2.8355                 2.3074

                      7                      8                      9
                      A                      A                      A
 Frequencies --    122.7466               145.8906               198.3838
 Red. masses --      4.5381                 3.5888                 4.1929
 Frc consts  --      0.0403                 0.0450                 0.0972
 IR Inten    --      3.2492                 0.6580                 7.3669

                     10                     11                     12
                      A                      A                      A
 Frequencies --    224.1889               247.5276               260.1275
 Red. masses --      3.6388                 3.0436                 3.5576
 Frc consts  --      0.1078                 0.1099                 0.1418
 IR Inten    --     23.4384                 5.0449                 9.5119

                     13                     14                     15
                      A                      A                      A
 Frequencies --    277.7252               305.1763               323.9773
 Red. masses --      1.5284                 2.3534                 3.1144
 Frc consts  --      0.0695                 0.1291                 0.1926
 IR Inten    --     13.5917                12.8782                11.4065

                     16                     17                     18
                      A                      A                      A
 Frequencies --    346.1411               357.3438               382.6513
 Red. masses --      3.2090                 6.1364                 4.0008
 Frc consts  --      0.2265                 0.4617                 0.3451
 IR Inten    --     19.7684                 2.6115                12.4566

                     19                     20                     21
                      A                      A                      A
 Frequencies --    414.7595               443.7248               465.3299
 Red. masses --      4.5678                 3.6035                 3.2803
 Frc consts  --      0.4630                 0.4180                 0.4185
 IR Inten    --      5.3553                 2.5373                 3.1298

                     22                     23                     24
                      A                      A                      A
 Frequencies --    498.0765               537.7271               555.5473
 Red. masses --      2.6095                 5.3923                 3.0134
 Frc consts  --      0.3814                 0.9186                 0.5480
 IR Inten    --      9.5782                 5.8155                 1.3228

                     25                     26                     27
                      A                      A                      A
 Frequencies --    597.3616               697.7152               706.3997
 Red. masses --      4.1011                 3.1655                 2.7880
 Frc consts  --      0.8622                 0.9079                 0.8197
 IR Inten    --     40.5322                32.4428                46.2570

                     28                     29                     30
                      A                      A                      A
 Frequencies --    731.9708               789.8493               806.9208
 Red. masses --      2.4946                 1.5998                 1.6089
 Frc consts  --      0.7875                 0.5880                 0.6172
 IR Inten    --      2.7664                57.4453                33.4059

                     31                     32                     33
                      A                      A                      A
 Frequencies --    820.8910               892.7923               922.1222
 Red. masses --      5.6562                 2.5891                 2.7091
 Frc consts  --      2.2457                 1.2159                 1.3572
 IR Inten    --     20.5571                 5.2651                22.0444

                     34                     35                     36
                      A                      A                      A
 Frequencies --    944.9468               961.1151               968.0050
 Red. masses --      2.7306                 1.8625                 1.9646
 Frc consts  --      1.4366                 1.0137                 1.0846
 IR Inten    --     15.4944                67.7308                57.2468

                     37                     38                     39
                      A                      A                      A
 Frequencies --    992.0052              1022.4137              1039.1151
 Red. masses --      2.0917                 1.9939                 2.2094
 Frc consts  --      1.2128                 1.2280                 1.4056
 IR Inten    --      6.2474                 4.6977                 2.5599

                     40                     41                     42
                      A                      A                      A
 Frequencies --   1044.4052              1051.7730              1077.6906
 Red. masses --      3.3898                 2.6767                 2.8087
 Frc consts  --      2.1785                 1.7446                 1.9219
 IR Inten    --     10.7815                 9.0624                 4.2500

                     43                     44                     45
                      A                      A                      A
 Frequencies --   1113.8401              1132.1980              1154.2054
 Red. masses --      3.3340                 2.3328                 2.3487
 Frc consts  --      2.4371                 1.7619                 1.8435
 IR Inten    --     35.8844                 1.6063                17.8955

                     46                     47                     48
                      A                      A                      A
 Frequencies --   1165.3670              1201.3333              1214.5781
 Red. masses --      3.1676                 1.1988                 1.2566
 Frc consts  --      2.5345                 1.0194                 1.0922
 IR Inten    --     89.6112                 3.8963                 1.0802

                     49                     50                     51
                      A                      A                      A
 Frequencies --   1225.0122              1235.1691              1245.6374
 Red. masses --      2.2311                 1.3847                 1.5462
 Frc consts  --      1.9726                 1.2447                 1.4135
 IR Inten    --      6.7790                15.0022                11.8992

                     52                     53                     54
                      A                      A                      A
 Frequencies --   1273.9162              1291.7303              1321.0995
 Red. masses --      1.1558                 1.3476                 1.3731
 Frc consts  --      1.1052                 1.3248                 1.4120
 IR Inten    --      4.4948                 2.7158                16.5711

                     55                     56                     57
                      A                      A                      A
 Frequencies --   1326.5263              1343.2071              1368.1924
 Red. masses --      1.2692                 1.3155                 1.3179
 Frc consts  --      1.3159                 1.3984                 1.4536
 IR Inten    --     13.0752                29.9536                22.0711

                     58                     59                     60
                      A                      A                      A
 Frequencies --   1370.4733              1402.8370              1447.9047
 Red. masses --      1.3979                 1.3534                 2.7478
 Frc consts  --      1.5469                 1.5693                 3.3941
 IR Inten    --     40.1571                 6.5886                25.5516

                     61                     62                     63
                      A                      A                      A
 Frequencies --   1480.7088              1491.5246              1493.1789
 Red. masses --      1.1121                 1.1835                 1.1555
 Frc consts  --      1.4366                 1.5512                 1.5179
 IR Inten    --      3.2198                 6.6048                 3.5787

                     64                     65                     66
                      A                      A                      A
 Frequencies --   1502.8248              1514.2442              1531.8253
 Red. masses --      1.0831                 1.3168                 2.2095
 Frc consts  --      1.4412                 1.7789                 3.0546
 IR Inten    --      5.7411                 4.0802                 2.8204

                     67                     68                     69
                      A                      A                      A
 Frequencies --   1669.4922              1674.5175              1761.3525
 Red. masses --     11.7764                 1.0850                 9.7566
 Frc consts  --     19.3390                 1.7926                17.8337
 IR Inten    --      0.4863                 9.3823               118.1927

                     70                     71                     72
                      A                      A                      A
 Frequencies --   1811.4421              2919.9521              2966.5458
 Red. masses --     12.1424                 1.0695                 1.0710
 Frc consts  --     23.4750                 5.3724                 5.5531
 IR Inten    --    375.6073                50.5437                63.2885

                     73                     74                     75
                      A                      A                      A
 Frequencies --   2967.8779              3040.0941              3046.9084
 Red. masses --      1.0690                 1.0845                 1.0878
 Frc consts  --      5.5480                 5.9052                 5.9499
 IR Inten    --     13.3688                22.9567                19.4958

                     76                     77                     78
                      A                      A                      A
 Frequencies --   3069.9959              3076.6812              3095.3957
 Red. masses --      1.0840                 1.0905                 1.0909
 Frc consts  --      6.0194                 6.0819                 6.1586
 IR Inten    --      6.4256                17.8018                12.9521

                     79                     80                     81
                      A                      A                      A
 Frequencies --   3117.5530              3137.3466              3419.9919
 Red. masses --      1.0921                 1.0872                 1.0561
 Frc consts  --      6.2539                 6.3047                 7.2781
 IR Inten    --     17.0391                17.6488                17.5171

                     82                     83                     84
                      A                      A                      A
 Frequencies --   3450.9957              3553.3196              3557.6021
 Red. masses --      1.0726                 1.0740                 1.0871
 Frc consts  --      7.5259                 7.9899                 8.1067
 IR Inten    --      0.9451                13.0407                 1.5944

 - Thermochemistry -
 -------------------
 Temperature   298.150 Kelvin.  Pressure   1.00000 Atm.
 Atom     1 has atomic number  7 and mass  14.00307

 Molecular mass:   224.12598 amu.
 Principal axes and moments of inertia in atomic units:
                           1         2         3
     Eigenvalues --  2289.585076309.931278362.23584
           X            0.99994  -0.00969  -0.00483
           Y            0.00966   0.99994  -0.00572
           Z            0.00489   0.00567   0.99997
 This molecule is an asymmetric top.
 Rotational symmetry number  1.
 Warning -- assumption of classical behavior for rotation
           may cause significant error
 Rotational temperatures (Kelvin)      0.03783     0.01373     0.01036
 Rotational constants (GHZ):           0.78824     0.28602     0.21582
 Zero-point vibrational energy     632605.5 (Joules/Mol)
                                  151.19634 (Kcal/Mol)
 Warning -- explicit consideration of  25 degrees of freedom as
           vibrations may cause significant error
 Vibrational temperatures:     43.71    64.92    92.17   105.64   132.67
          (Kelvin)            142.51   176.60   209.90   285.43   322.56
                              356.14   374.27   399.58   439.08   466.13
                              498.02   514.14   550.55   596.75   638.42
                              669.51   716.62   773.67   799.31   859.47
                             1003.86  1016.35  1053.14  1136.42  1160.98
                             1181.08  1284.53  1326.73  1359.57  1382.83
                             1392.74  1427.27  1471.03  1495.05  1502.67
                             1513.27  1550.56  1602.57  1628.98  1660.64
                             1676.70  1728.45  1747.51  1762.52  1777.13
                             1792.19  1832.88  1858.51  1900.77  1908.58
                             1932.58  1968.52  1971.81  2018.37  2083.21
                             2130.41  2145.97  2148.35  2162.23  2178.66
                             2203.96  2402.03  2409.26  2534.19  2606.26
                             4201.16  4268.20  4270.11  4374.02  4383.82
                             4417.04  4426.66  4453.58  4485.46  4513.94
                             4920.61  4965.21  5112.43  5118.60

 Zero-point correction=                           0.240947 (Hartree/Particle)
 Thermal correction to Energy=                    0.257120
 Thermal correction to Enthalpy=                  0.258065
 Thermal correction to Gibbs Free Energy=         0.195464
 Sum of electronic and zero-point Energies=           -771.365586
 Sum of electronic and thermal Energies=              -771.349412
 Sum of electronic and thermal Enthalpies=            -771.348468
 Sum of electronic and thermal Free Energies=         -771.411068

                     E (Thermal)             CV                S
                      KCal/Mol        Cal/Mol-Kelvin    Cal/Mol-Kelvin
 Total                  161.345             59.440            131.754
 Electronic               0.000              0.000              1.377
 Translational            0.889              2.981             42.124
 Rotational               0.889              2.981             33.157
 Vibrational            159.568             53.479             55.096
 Vibration     1          0.594              1.984              5.805
 Vibration     2          0.595              1.979              5.021
 Vibration     3          0.597              1.971              4.328
 Vibration     4          0.599              1.967              4.059
 Vibration     5          0.602              1.955              3.613
 Vibration     6          0.604              1.950              3.473
 Vibration     7          0.610              1.930              3.057
 Vibration     8          0.617              1.907              2.725
 Vibration     9          0.637              1.842              2.148
 Vibration    10          0.649              1.804              1.925
 Vibration    11          0.661              1.767              1.748
 Vibration    12          0.668              1.746              1.661
 Vibration    13          0.679              1.715              1.548
 Vibration    14          0.696              1.664              1.388
 Vibration    15          0.709              1.627              1.290
 Vibration    16          0.724              1.583              1.184
 Vibration    17          0.733              1.560              1.134
 Vibration    18          0.752              1.507              1.029
 Vibration    19          0.778              1.438              0.910
 Vibration    20          0.803              1.375              0.815
 Vibration    21          0.823              1.327              0.751
 Vibration    22          0.854              1.254              0.663
 Vibration    23          0.893              1.167              0.570
 Vibration    24          0.911              1.128              0.533
 Vibration    25          0.955              1.037              0.454

 Optimization completed.
    -- Stationary point found.
 Normal termination of Gaussian 16 at Thu May 18 09:33:22 2023.
