 Gaussian 16, Revision A.03,
 Gaussian 16:  ES64L-G16RevA.03 25-Dec-2016

 -----------------------------
 # opt freq b3lyp/6-31g(2df,p)
 -----------------------------

 -------------------
 Title Card Required
 -------------------
 Symbolic Z-matrix:
 Charge =  0 Multiplicity = 1

 SCF Done:  E(RB3LYP) =  -1270.78249561     A.U. after   16 cycles
 SCF Done:  E(RB3LYP) =  -1270.79722444     A.U. after   15 cycles
 SCF Done:  E(RB3LYP) =  -1270.80297775     A.U. after   13 cycles
 SCF Done:  E(RB3LYP) =  -1270.80801149     A.U. after   14 cycles
 SCF Done:  E(RB3LYP) =  -1270.81056036     A.U. after   13 cycles
 SCF Done:  E(RB3LYP) =  -1270.81462397     A.U. after   14 cycles
 SCF Done:  E(RB3LYP) =  -1270.81948900     A.U. after   16 cycles
 SCF Done:  E(RB3LYP) =  -1270.82219241     A.U. after   13 cycles
 SCF Done:  E(RB3LYP) =  -1270.82501609     A.U. after   14 cycles
 SCF Done:  E(RB3LYP) =  -1270.82532348     A.U. after   12 cycles
 SCF Done:  E(RB3LYP) =  -1270.82555802     A.U. after   12 cycles
 SCF Done:  E(RB3LYP) =  -1270.82561999     A.U. after   12 cycles
 SCF Done:  E(RB3LYP) =  -1270.82569582     A.U. after   10 cycles
 SCF Done:  E(RB3LYP) =  -1270.82572560     A.U. after   11 cycles
 SCF Done:  E(RB3LYP) =  -1270.82573051     A.U. after   10 cycles
 SCF Done:  E(RB3LYP) =  -1270.82573113     A.U. after    8 cycles
 SCF Done:  E(RB3LYP) =  -1270.82573127     A.U. after    7 cycles
 Optimization completed.
    -- Stationary point found.
 Normal termination of Gaussian 16 at Tue May 16 00:57:20 2023.

 ----------------------------------------------------------------------
 #N Geom=AllCheck Guess=TCheck SCRF=Check GenChk RB3LYP/6-31G(2df,p) Fr
 eq
 ----------------------------------------------------------------------

 Structure from the checkpoint file:  "NNdCC1dCCdCSCdC1NdCS.chk"
 -------------------
 Title Card Required
 -------------------
 Charge =  0 Multiplicity = 1

                         Standard orientation:
 ---------------------------------------------------------------------
 Center     Atomic      Atomic             Coordinates (Angstroms)
 Number     Number       Type             X           Y           Z
 ---------------------------------------------------------------------
      1          7           0       -1.948332    3.517510    0.634028
      2          7           0       -1.039300    2.732448   -0.008400
      3          6           0       -0.760065    1.588850    0.496575
      4          6           0        0.318581    0.734834   -0.029480
      5          6           0        1.226987    1.228706   -0.906789
      6          6           0        2.360888    0.546389   -1.494616
      7          6           0        3.179586   -0.319215   -0.878590
      8         16           0        3.014077   -0.791403    0.830706
      9          6           0        1.352700   -1.393019    0.820310
     10          6           0        0.281999   -0.682690    0.414572
     11          7           0       -0.943872   -1.385271    0.422712
     12          6           0       -1.872862   -1.074131   -0.386878
     13         16           0       -3.428094   -1.898786   -0.426227
     14          1           0       -2.403422    4.143483   -0.015497
     15          1           0       -2.614663    3.023824    1.227327
     16          1           0       -1.303337    1.211303    1.371664
     17          1           0        1.068256    2.254859   -1.231852
     18          1           0        2.601449    0.813795   -2.523165
     19          1           0        4.019880   -0.766831   -1.399760
     20          1           0        1.207045   -2.425690    1.121483
     21          1           0       -1.814946   -0.286087   -1.144231
     22          1           0       -3.142338   -2.756771    0.573349
 ---------------------------------------------------------------------

 SCF Done:  E(RB3LYP) =  -1270.82573127     A.U. after    1 cycles

 The electronic state is 1-A.
 Alpha  occ. eigenvalues --  -88.89920 -88.87908 -14.36902 -14.36519 -14.33937
 Alpha  occ. eigenvalues --  -10.26589 -10.22917 -10.21805 -10.21376 -10.20788
 Alpha  occ. eigenvalues --  -10.20786 -10.19735 -10.19551  -7.96565  -7.94053
 Alpha  occ. eigenvalues --   -5.92997  -5.92596  -5.92176  -5.90550  -5.90184
 Alpha  occ. eigenvalues --   -5.89627  -1.00117  -0.94817  -0.85066  -0.82002
 Alpha  occ. eigenvalues --   -0.79557  -0.76935  -0.75205  -0.68389  -0.65708
 Alpha  occ. eigenvalues --   -0.60005  -0.59145  -0.55192  -0.53943  -0.53303
 Alpha  occ. eigenvalues --   -0.50420  -0.48333  -0.47225  -0.44817  -0.42965
 Alpha  occ. eigenvalues --   -0.41497  -0.40594  -0.39588  -0.38686  -0.37030
 Alpha  occ. eigenvalues --   -0.36291  -0.35607  -0.31811  -0.29502  -0.28328
 Alpha  occ. eigenvalues --   -0.27731  -0.26720  -0.24767  -0.21978  -0.20045
 Alpha virt. eigenvalues --   -0.06356  -0.03741   0.00791   0.00987   0.02464
 Alpha virt. eigenvalues --    0.06481   0.07035   0.07672   0.09957   0.10905
 Alpha virt. eigenvalues --    0.11357   0.11608   0.13513   0.14771   0.15930

 Mulliken charges:
               1
     1  N   -0.407904
     2  N   -0.154067
     3  C   -0.045882
     4  C    0.126616
     5  C   -0.147226
     6  C   -0.082774
     7  C   -0.119536
     8  S   -0.146722
     9  C   -0.184119
    10  C    0.236466
    11  N   -0.240614
    12  C   -0.023008
    13  S   -0.196419
    14  H    0.263805
    15  H    0.237601
    16  H    0.084670
    17  H    0.119595
    18  H    0.105614
    19  H    0.123365
    20  H    0.123910
    21  H    0.140656
    22  H    0.185971
 Sum of Mulliken charges =  -0.00000

 Dipole moment (field-independent basis, Debye):
    X=             -2.5953    Y=              0.7474    Z=             -1.0973  Tot=              2.9152
 Quadrupole moment (field-independent basis, Debye-Ang):
   XX=            -84.3405   YY=            -86.8322   ZZ=            -87.5720
   XY=             -5.3668   XZ=             -7.7800   YZ=             -2.6964

  Exact polarizability: 226.667 -19.805 150.586  -5.593 -11.434 109.637
 Approx polarizability: 364.541 -50.312 240.018  -0.354 -33.309 201.104

                      1                      2                      3
                      A                      A                      A
 Frequencies --     45.1457                71.0794                84.4390
 Red. masses --      6.6827                 5.5119                 8.6101
 Frc consts  --      0.0080                 0.0164                 0.0362
 IR Inten    --      0.3256                 1.2102                 0.4510

                      4                      5                      6
                      A                      A                      A
 Frequencies --    121.1860               142.2386               159.6773
 Red. masses --      2.0316                 4.8833                 2.1306
 Frc consts  --      0.0176                 0.0582                 0.0320
 IR Inten    --     11.1384                 5.4192                 9.1953

                      7                      8                      9
                      A                      A                      A
 Frequencies --    184.6536               225.9509               229.5098
 Red. masses --      4.0480                 5.2623                 4.8952
 Frc consts  --      0.0813                 0.1583                 0.1519
 IR Inten    --      2.5879                 8.0652                 1.2018

                     10                     11                     12
                      A                      A                      A
 Frequencies --    273.2666               279.9280               352.0772
 Red. masses --      5.0222                 6.2087                 6.6121
 Frc consts  --      0.2210                 0.2866                 0.4829
 IR Inten    --      1.5590                 2.2235                 6.8625

                     13                     14                     15
                      A                      A                      A
 Frequencies --    385.1831               393.3543               398.9970
 Red. masses --      3.3391                 1.4751                 3.2366
 Frc consts  --      0.2919                 0.1345                 0.3036
 IR Inten    --      3.9334                21.3256                12.1839

                     16                     17                     18
                      A                      A                      A
 Frequencies --    442.4654               471.7763               500.9681
 Red. masses --      3.3801                 1.4609                 5.1053
 Frc consts  --      0.3899                 0.1916                 0.7549
 IR Inten    --      5.5275                11.4124                22.1378

                     19                     20                     21
                      A                      A                      A
 Frequencies --    541.0230               634.1528               678.8637
 Red. masses --      5.3772                 4.9024                 1.8830
 Frc consts  --      0.9273                 1.1616                 0.5113
 IR Inten    --     17.5594                23.0645               360.1010

                     22                     23                     24
                      A                      A                      A
 Frequencies --    697.2965               711.1014               726.9506
 Red. masses --      3.4975                 2.0849                 2.6681
 Frc consts  --      1.0020                 0.6212                 0.8307
 IR Inten    --    119.4879                10.1707                86.2027

                     25                     26                     27
                      A                      A                      A
 Frequencies --    767.6832               781.6236               836.9663
 Red. masses --      2.3833                 4.1332                 3.0338
 Frc consts  --      0.8275                 1.4878                 1.2521
 IR Inten    --     50.7266                 3.9994                 1.9593

                     28                     29                     30
                      A                      A                      A
 Frequencies --    857.7230               879.6690               934.3119
 Red. masses --      1.6009                 3.1683                 1.4541
 Frc consts  --      0.6939                 1.4445                 0.7479
 IR Inten    --     43.3143                 9.0368                 2.6793

                     31                     32                     33
                      A                      A                      A
 Frequencies --    946.9781               958.2736               966.2526
 Red. masses --      1.5247                 1.3627                 1.6431
 Frc consts  --      0.8056                 0.7373                 0.9038
 IR Inten    --      7.4458                 5.2903                20.7896

                     34                     35                     36
                      A                      A                      A
 Frequencies --    973.0606              1049.6838              1121.6909
 Red. masses --      1.5988                 2.4717                 3.1163
 Frc consts  --      0.8919                 1.6046                 2.3101
 IR Inten    --     21.7197                 8.4631                15.2373

                     37                     38                     39
                      A                      A                      A
 Frequencies --   1139.6366              1188.2952              1225.8463
 Red. masses --      3.1004                 1.7169                 1.5634
 Frc consts  --      2.3725                 1.4284                 1.3842
 IR Inten    --     24.6012                27.3415                 7.7259

                     40                     41                     42
                      A                      A                      A
 Frequencies --   1266.2701              1286.3995              1347.9603
 Red. masses --      1.1974                 1.3971                 1.2256
 Frc consts  --      1.1312                 1.3622                 1.3121
 IR Inten    --     13.6298                 7.4088                13.4843

                     43                     44                     45
                      A                      A                      A
 Frequencies --   1359.1068              1385.2988              1439.2522
 Red. masses --      1.4210                 1.7869                 1.6222
 Frc consts  --      1.5465                 2.0204                 1.9798
 IR Inten    --     15.7840                 3.9439                 6.9734

                     46                     47                     48
                      A                      A                      A
 Frequencies --   1614.2120              1619.7638              1643.0432
 Red. masses --      9.9867                 8.7041                 5.6862
 Frc consts  --     15.3319                13.4549                 9.0443
 IR Inten    --     53.9142                38.0817                10.6474

                     49                     50                     51
                      A                      A                      A
 Frequencies --   1654.0861              1659.8073              1687.7151
 Red. masses --      1.7450                 3.1216                 3.8467
 Frc consts  --      2.8130                 5.0669                 6.4556
 IR Inten    --    140.3090                80.9147                26.0653

                     52                     53                     54
                      A                      A                      A
 Frequencies --   2672.1328              3038.8368              3069.8718
 Red. masses --      1.0377                 1.0852                 1.0880
 Frc consts  --      4.3657                 5.9042                 6.0412
 IR Inten    --      0.3212                42.2502                12.5805

                     55                     56                     57
                      A                      A                      A
 Frequencies --   3127.9097              3154.1609              3175.7638
 Red. masses --      1.0836                 1.0867                 1.0894
 Frc consts  --      6.2462                 6.3700                 6.4735
 IR Inten    --      9.9006                 2.0176                13.2171

                     58                     59                     60
                      A                      A                      A
 Frequencies --   3178.9240              3435.1922              3619.7243
 Red. masses --      1.0940                 1.0523                 1.0906
 Frc consts  --      6.5134                 7.3165                 8.4192
 IR Inten    --     13.5499                 2.0772                24.7232

 - Thermochemistry -
 -------------------
 Temperature   298.150 Kelvin.  Pressure   1.00000 Atm.
 Atom     1 has atomic number  7 and mass  14.00307

 Molecular mass:   211.02379 amu.
 Principal axes and moments of inertia in atomic units:
                           1         2         3
     Eigenvalues --  2509.904234260.635885965.02907
           X            0.99957  -0.02377  -0.01707
           Y            0.02369   0.99971  -0.00472
           Z            0.01718   0.00431   0.99984
 This molecule is an asymmetric top.
 Rotational symmetry number  1.
 Warning -- assumption of classical behavior for rotation
           may cause significant error
 Rotational temperatures (Kelvin)      0.03451     0.02033     0.01452
 Rotational constants (GHZ):           0.71905     0.42358     0.30255
 Zero-point vibrational energy     417582.9 (Joules/Mol)
                                   99.80471 (Kcal/Mol)
 Warning -- explicit consideration of  19 degrees of freedom as
           vibrations may cause significant error
 Vibrational temperatures:     64.95   102.27   121.49   174.36   204.65
          (Kelvin)            229.74   265.68   325.09   330.21   393.17
                              402.75   506.56   554.19   565.95   574.07
                              636.61   678.78   720.78   778.41   912.40
                              976.73  1003.25  1023.12  1045.92  1104.52
                             1124.58  1204.21  1234.07  1265.65  1344.27
                             1362.49  1378.74  1390.22  1400.02  1510.26
                             1613.86  1639.68  1709.69  1763.72  1821.88
                             1850.84  1939.41  1955.45  1993.14  2070.76
                             2322.49  2330.48  2363.97  2379.86  2388.09
                             2428.25  3844.60  4372.21  4416.86  4500.36
                             4538.13  4569.22  4573.76  4942.48  5207.98

 Zero-point correction=                           0.159049 (Hartree/Particle)
 Thermal correction to Energy=                    0.172377
 Thermal correction to Enthalpy=                  0.173321
 Thermal correction to Gibbs Free Energy=         0.118468
 Sum of electronic and zero-point Energies=          -1270.666682
 Sum of electronic and thermal Energies=             -1270.653354
 Sum of electronic and thermal Enthalpies=           -1270.652410
 Sum of electronic and thermal Free Energies=        -1270.707263

                     E (Thermal)             CV                S
                      KCal/Mol        Cal/Mol-Kelvin    Cal/Mol-Kelvin
 Total                  108.168             49.361            115.448
 Electronic               0.000              0.000              0.000
 Translational            0.889              2.981             41.944
 Rotational               0.889              2.981             32.523
 Vibrational            106.391             43.399             40.982
 Vibration     1          0.595              1.979              5.019
 Vibration     2          0.598              1.968              4.123
 Vibration     3          0.601              1.960              3.785
 Vibration     4          0.609              1.932              3.081
 Vibration     5          0.616              1.911              2.774
 Vibration     6          0.622              1.892              2.554
 Vibration     7          0.631              1.861              2.281
 Vibration     8          0.650              1.801              1.911
 Vibration     9          0.652              1.796              1.883
 Vibration    10          0.676              1.723              1.575
 Vibration    11          0.680              1.711              1.534
 Vibration    12          0.729              1.571              1.157
 Vibration    13          0.754              1.502              1.019
 Vibration    14          0.761              1.484              0.987
 Vibration    15          0.765              1.472              0.966
 Vibration    16          0.802              1.378              0.819
 Vibration    17          0.829              1.313              0.733
 Vibration    18          0.856              1.248              0.656
 Vibration    19          0.896              1.159              0.563

 Optimization completed.
    -- Stationary point found.
 Normal termination of Gaussian 16 at Tue May 16 01:59:51 2023.
