 Gaussian 16, Revision A.03,
 Gaussian 16:  ES64L-G16RevA.03 25-Dec-2016

 -----------------------------
 # opt freq b3lyp/6-31g(2df,p)
 -----------------------------

 -------------------
 Title Card Required
 -------------------
 Symbolic Z-matrix:
 Charge =  0 Multiplicity = 1

 SCF Done:  E(RB3LYP) =  -754.050350910     A.U. after   30 cycles
 SCF Done:  E(RB3LYP) =  -753.815222576     A.U. after   25 cycles
 SCF Done:  E(RB3LYP) =  -754.199468306     A.U. after   22 cycles
 SCF Done:  E(RB3LYP) =  -754.257591794     A.U. after   22 cycles
 SCF Done:  E(RB3LYP) =  -754.314894588     A.U. after   23 cycles
 SCF Done:  E(RB3LYP) =  -754.376520086     A.U. after   30 cycles
 SCF Done:  E(RB3LYP) =  -754.441962321     A.U. after   48 cycles
 SCF Done:  E(RB3LYP) =  -754.496586117     A.U. after   35 cycles
 SCF Done:  E(RB3LYP) =  -754.554021098     A.U. after   22 cycles
 SCF Done:  E(RB3LYP) =  -754.589277054     A.U. after   30 cycles
 SCF Done:  E(RB3LYP) =  -754.740874230     A.U. after    9 cycles
 SCF Done:  E(RB3LYP) =  -754.740928163     A.U. after   13 cycles
 SCF Done:  E(RB3LYP) =  -754.740962655     A.U. after   13 cycles
 SCF Done:  E(RB3LYP) =  -754.740999021     A.U. after   13 cycles
 SCF Done:  E(RB3LYP) =  -754.741021208     A.U. after   12 cycles
 SCF Done:  E(RB3LYP) =  -754.741034720     A.U. after   11 cycles
 SCF Done:  E(RB3LYP) =  -754.741037239     A.U. after   10 cycles
 SCF Done:  E(RB3LYP) =  -754.741037669     A.U. after    9 cycles
 SCF Done:  E(RB3LYP) =  -754.741037782     A.U. after    8 cycles
 Optimization completed.
    -- Stationary point found.
 Normal termination of Gaussian 16 at Wed May 17 11:08:21 2023.

 ----------------------------------------------------------------------
 #N Geom=AllCheck Guess=TCheck SCRF=Check GenChk RB3LYP/6-31G(2df,p) Fr
 eq
 ----------------------------------------------------------------------

 Structure from the checkpoint file:  "NNdC1NCdNCdCC2dCCdCCdCC2dNN1.chk"
 -------------------
 Title Card Required
 -------------------
 Charge =  0 Multiplicity = 1

                         Standard orientation:
 ---------------------------------------------------------------------
 Center     Atomic      Atomic             Coordinates (Angstroms)
 Number     Number       Type             X           Y           Z
 ---------------------------------------------------------------------
      1          7           0       -6.914243    0.074410   -0.107052
      2          7           0       -5.716824   -0.566937   -0.034421
      3          6           0       -4.669104    0.273765    0.040428
      4          7           0       -3.506528   -0.539430    0.041652
      5          6           0       -2.274520   -0.073627    0.052709
      6          7           0       -1.242119   -0.917776    0.001448
      7          6           0       -0.031539   -0.394884    0.036322
      8          6           0        1.115839   -1.209568   -0.014833
      9          6           0        2.410367   -0.742053    0.016917
     10          6           0        3.562547   -1.596668    0.012208
     11          6           0        4.888332   -1.256304    0.026971
     12          6           0        5.599960    0.005746   -0.038164
     13          6           0        5.150063    1.260843   -0.281662
     14          6           0        3.735947    1.588075   -0.466343
     15          6           0        2.757768    0.661359    0.081979
     16          7           0        2.790373    1.691422    0.797667
     17          7           0       -4.503853    1.560433    0.071622
     18          1           0       -7.634590   -0.552530   -0.439924
     19          1           0       -6.901267    0.957748   -0.619615
     20          1           0       -3.666566   -1.537230   -0.018796
     21          1           0       -2.198051    1.013287    0.102463
     22          1           0        0.104281    0.690450    0.108527
     23          1           0        0.950354   -2.279430   -0.104452
     24          1           0        3.337179   -2.659172    0.066803
     25          1           0        5.559874   -2.109127    0.092889
     26          1           0        6.675574   -0.105479    0.077726
     27          1           0        5.881150    2.058681   -0.389387
     28          1           0        3.459243    2.264987   -1.269982
     29          1           0       -5.388781    2.042856    0.198129
 ---------------------------------------------------------------------

 SCF Done:  E(RB3LYP) =  -754.741037782     A.U. after    1 cycles

 The electronic state is 1-A.
 Alpha  occ. eigenvalues --  -14.39155 -14.36380 -14.36354 -14.34292 -14.33601
 Alpha  occ. eigenvalues --  -14.25622 -10.26784 -10.25468 -10.25056 -10.24436
 Alpha  occ. eigenvalues --  -10.23790 -10.23604 -10.21764 -10.21694 -10.21144
 Alpha  occ. eigenvalues --  -10.20994 -10.20902  -1.01232  -1.00017  -0.97666
 Alpha  occ. eigenvalues --   -0.92970  -0.85462  -0.83956  -0.81681  -0.77328
 Alpha  occ. eigenvalues --   -0.75887  -0.71618  -0.67740  -0.65035  -0.62142
 Alpha  occ. eigenvalues --   -0.60920  -0.58886  -0.55618  -0.53850  -0.53527
 Alpha  occ. eigenvalues --   -0.51517  -0.50077  -0.48464  -0.47509  -0.46304
 Alpha  occ. eigenvalues --   -0.45193  -0.43951  -0.43653  -0.42541  -0.41953
 Alpha  occ. eigenvalues --   -0.39785  -0.39679  -0.38625  -0.37409  -0.36207
 Alpha  occ. eigenvalues --   -0.34253  -0.31717  -0.30657  -0.29672  -0.28276
 Alpha  occ. eigenvalues --   -0.27938  -0.26082  -0.23494  -0.22562  -0.15667
 Alpha virt. eigenvalues --   -0.11818  -0.05484  -0.02997   0.01122   0.05363
 Alpha virt. eigenvalues --    0.07407   0.07927   0.08501   0.09434   0.10812
 Alpha virt. eigenvalues --    0.10995   0.12014   0.13318   0.13904   0.14222

 Mulliken charges:
               1
     1  N   -0.402000
     2  N   -0.320916
     3  C    0.430219
     4  N   -0.291334
     5  C    0.161093
     6  N   -0.296082
     7  C    0.023290
     8  C   -0.225503
     9  C    0.159742
    10  C   -0.130441
    11  C   -0.091722
    12  C   -0.078280
    13  C   -0.070616
    14  C   -0.167482
    15  C    0.241124
    16  N   -0.237525
    17  N   -0.620684
    18  H    0.261963
    19  H    0.235923
    20  H    0.277955
    21  H    0.169464
    22  H    0.119227
    23  H    0.113528
    24  H    0.108841
    25  H    0.105904
    26  H    0.101798
    27  H    0.108907
    28  H    0.112525
    29  H    0.201081
 Sum of Mulliken charges =  -0.00000

 Dipole moment (field-independent basis, Debye):
    X=              2.7240    Y=             -2.1999    Z=             -2.4037  Tot=              4.2470
 Quadrupole moment (field-independent basis, Debye-Ang):
   XX=            -71.5327   YY=            -97.1177   ZZ=           -101.8375
   XY=             -1.3629   XZ=              4.1535   YZ=             -4.2027

  Exact polarizability: 877.309 -14.670 161.699   3.324  -2.453  75.575
 Approx polarizability:3674.546 -73.284 305.176   8.636   0.872 132.178
