 Gaussian 16, Revision A.03,
 Gaussian 16:  ES64L-G16RevA.03 25-Dec-2016

 -----------------------------
 # opt freq b3lyp/6-31g(2df,p)
 -----------------------------

 -------------------
 Title Card Required
 -------------------
 Symbolic Z-matrix:
 Charge =  0 Multiplicity = 1

 SCF Done:  E(RB3LYP) =  -980.835865918     A.U. after   18 cycles
 SCF Done:  E(RB3LYP) =  -980.861408811     A.U. after   16 cycles
 SCF Done:  E(RB3LYP) =  -980.867373351     A.U. after   18 cycles
 SCF Done:  E(RB3LYP) =  -980.868602839     A.U. after   17 cycles
 SCF Done:  E(RB3LYP) =  -980.868644926     A.U. after   18 cycles
 SCF Done:  E(RB3LYP) =  -980.869965522     A.U. after   18 cycles
 SCF Done:  E(RB3LYP) =  -980.871662214     A.U. after   14 cycles
 SCF Done:  E(RB3LYP) =  -980.870935080     A.U. after   16 cycles
 SCF Done:  E(RB3LYP) =  -980.871805109     A.U. after   16 cycles
 SCF Done:  E(RB3LYP) =  -980.872172207     A.U. after   16 cycles
 SCF Done:  E(RB3LYP) =  -980.941050852     A.U. after   14 cycles
 SCF Done:  E(RB3LYP) =  -980.941258264     A.U. after   13 cycles
 SCF Done:  E(RB3LYP) =  -980.941378150     A.U. after   13 cycles
 SCF Done:  E(RB3LYP) =  -980.941663483     A.U. after   12 cycles
 SCF Done:  E(RB3LYP) =  -980.941684461     A.U. after   10 cycles
 SCF Done:  E(RB3LYP) =  -980.941690492     A.U. after   11 cycles
 SCF Done:  E(RB3LYP) =  -980.941698131     A.U. after   10 cycles
 SCF Done:  E(RB3LYP) =  -980.941699509     A.U. after    9 cycles
 SCF Done:  E(RB3LYP) =  -980.941700389     A.U. after    8 cycles
 Optimization completed.
    -- Stationary point found.
 Normal termination of Gaussian 16 at Wed May 17 19:37:21 2023.

 ----------------------------------------------------------------------
 #N Geom=AllCheck Guess=TCheck SCRF=Check GenChk RB3LYP/6-31G(2df,p) Fr
 eq
 ----------------------------------------------------------------------

 Structure from the checkpoint file:  "NNdCdCCqdCNdSrc1ccnnc1.chk"
 -------------------
 Title Card Required
 -------------------
 Charge =  0 Multiplicity = 1

                         Standard orientation:
 ---------------------------------------------------------------------
 Center     Atomic      Atomic             Coordinates (Angstroms)
 Number     Number       Type             X           Y           Z
 ---------------------------------------------------------------------
      1          7           0        4.021665   -1.234103   -0.140446
      2          7           0        2.803845   -1.661573   -0.171824
      3          6           0        1.781984   -0.843279   -0.080597
      4          6           0        0.424266   -1.272107   -0.114677
      5          6           0       -0.374183   -0.153324   -0.005992
      6          6           0        0.509253    0.967458    0.098617
      7          7           0        1.781752    0.577715    0.059230
      8         16           0        3.165209    1.602707    0.175144
      9          6           0       -1.833764   -0.085112    0.001755
     10          6           0       -2.641893   -1.179535    0.289976
     11          6           0       -4.019872   -0.994976    0.260157
     12          7           0       -4.612826    0.167295   -0.017573
     13          7           0       -3.851523    1.223445   -0.296183
     14          6           0       -2.527975    1.102562   -0.290151
     15          1           0        4.733598   -1.945357   -0.215155
     16          1           0        4.215123   -0.219502   -0.035317
     17          1           0        0.130913   -2.302670   -0.238252
     18          1           0        0.278598    2.014420    0.221660
     19          1           0       -2.220841   -2.145163    0.547354
     20          1           0       -4.697060   -1.815726    0.477729
     21          1           0       -1.990978    2.011118   -0.547289
 ---------------------------------------------------------------------

 SCF Done:  E(RB3LYP) =  -980.941700389     A.U. after    1 cycles

 The electronic state is 1-A.
 Alpha  occ. eigenvalues --  -88.85151 -14.43349 -14.42689 -14.42551 -14.36373
 Alpha  occ. eigenvalues --  -14.36167 -10.27650 -10.25071 -10.23623 -10.23403
 Alpha  occ. eigenvalues --  -10.23298 -10.22722 -10.22207 -10.21961  -7.91424
 Alpha  occ. eigenvalues --   -5.88250  -5.87147  -5.87001  -1.07673  -1.01684
 Alpha  occ. eigenvalues --   -1.01230  -0.86161  -0.84959  -0.82848  -0.80450
 Alpha  occ. eigenvalues --   -0.72336  -0.70126  -0.66501  -0.65494  -0.62150
 Alpha  occ. eigenvalues --   -0.61184  -0.57003  -0.54903  -0.52566  -0.50101
 Alpha  occ. eigenvalues --   -0.49502  -0.48278  -0.46926  -0.43877  -0.43393
 Alpha  occ. eigenvalues --   -0.42653  -0.42079  -0.41487  -0.40080  -0.34573
 Alpha  occ. eigenvalues --   -0.33942  -0.31093  -0.30065  -0.29475  -0.25568
 Alpha  occ. eigenvalues --   -0.23578  -0.22741  -0.20657
 Alpha virt. eigenvalues --   -0.11264  -0.05796  -0.03536   0.01580   0.03481
 Alpha virt. eigenvalues --    0.06036   0.06491   0.08746   0.10261   0.12487
 Alpha virt. eigenvalues --    0.13332   0.14324   0.14969   0.16853   0.18338

 Mulliken charges:
               1
     1  N   -0.333899
     2  N   -0.233623
     3  C    0.450501
     4  C   -0.351216
     5  C    0.208983
     6  C   -0.105982
     7  N   -0.071795
     8  S   -0.430345
     9  C    0.224781
    10  C   -0.225918
    11  C    0.045956
    12  N   -0.198500
    13  N   -0.201668
    14  C   -0.046376
    15  H    0.290723
    16  H    0.315403
    17  H    0.137429
    18  H    0.165896
    19  H    0.115238
    20  H    0.125035
    21  H    0.119376
 Sum of Mulliken charges =  -0.00000

 Dipole moment (field-independent basis, Debye):
    X=              3.7131    Y=             -4.9088    Z=              0.1709  Tot=              6.1573
 Quadrupole moment (field-independent basis, Debye-Ang):
   XX=            -95.6016   YY=            -84.3378   ZZ=            -88.8868
   XY=             -2.3806   XZ=             -3.9378   YZ=             -0.4784

  Exact polarizability: 266.214  -0.069 151.670  -2.031  -1.375  62.076
 Approx polarizability: 460.184 -22.107 309.207  -3.908  -1.360 107.604

                      1                      2                      3
                      A                      A                      A
 Frequencies --     33.4931                67.3695                96.3323
 Red. masses --      5.0739                 6.6768                 6.9895
 Frc consts  --      0.0034                 0.0179                 0.0382
 IR Inten    --      0.3350                 0.2209                 1.2108

                      4                      5                      6
                      A                      A                      A
 Frequencies --    135.8268               193.8907               260.5736
 Red. masses --      5.3440                 6.7431                 9.6386
 Frc consts  --      0.0581                 0.1494                 0.3856
 IR Inten    --      8.2201                 3.7980                 0.7496

                      7                      8                      9
                      A                      A                      A
 Frequencies --    286.3291               308.4960               337.4016
 Red. masses --      5.0756                 7.6166                 3.3588
 Frc consts  --      0.2452                 0.4271                 0.2253
 IR Inten    --     14.1465                 5.4316                 5.4296

                     10                     11                     12
                      A                      A                      A
 Frequencies --    348.3287               375.3611               381.7783
 Red. masses --      5.6671                 6.7098                 3.2135
 Frc consts  --      0.4051                 0.5570                 0.2760
 IR Inten    --      1.2714                 5.1020                 7.1059

                     13                     14                     15
                      A                      A                      A
 Frequencies --    492.4284               519.1618               533.5704
 Red. masses --      4.5354                 1.4014                 4.0877
 Frc consts  --      0.6480                 0.2225                 0.6857
 IR Inten    --     10.7217               111.5755                 4.9278

                     16                     17                     18
                      A                      A                      A
 Frequencies --    611.0183               646.4341               675.5119
 Red. masses --      5.6508                 2.4722                 6.9102
 Frc consts  --      1.2430                 0.6087                 1.8578
 IR Inten    --     27.8294                 1.0787                 5.2647

                     19                     20                     21
                      A                      A                      A
 Frequencies --    684.4761               717.0898               743.4256
 Red. masses --      2.6190                 5.5999                 5.6943
 Frc consts  --      0.7229                 1.6966                 1.8542
 IR Inten    --     16.4276                 5.4697                13.9095

                     22                     23                     24
                      A                      A                      A
 Frequencies --    779.7138               793.4827               832.2199
 Red. masses --      2.7768                 1.4672                 1.6877
 Frc consts  --      0.9946                 0.5443                 0.6887
 IR Inten    --      1.5224                11.9749                 9.1923

                     25                     26                     27
                      A                      A                      A
 Frequencies --    857.7824               887.5898               920.2630
 Red. masses --      1.4595                 1.6288                 7.6231
 Frc consts  --      0.6327                 0.7561                 3.8037
 IR Inten    --     22.2228                 3.4987                 8.9980

                     28                     29                     30
                      A                      A                      A
 Frequencies --    956.5058              1003.5535              1022.5976
 Red. masses --      1.4039                 1.3814                 5.7686
 Frc consts  --      0.7567                 0.8197                 3.5541
 IR Inten    --      0.4430                 0.3194                70.0120

                     31                     32                     33
                      A                      A                      A
 Frequencies --   1034.9593              1067.5658              1085.9342
 Red. masses --      5.1307                 3.5377                 2.0032
 Frc consts  --      3.2380                 2.3755                 1.3918
 IR Inten    --      2.2617                 8.6368                 2.3263

                     34                     35                     36
                      A                      A                      A
 Frequencies --   1120.3200              1200.5397              1204.5940
 Red. masses --      1.8482                 1.4182                 4.2771
 Frc consts  --      1.3668                 1.2043                 3.6566
 IR Inten    --      2.1071                 8.4767                 0.6557

                     37                     38                     39
                      A                      A                      A
 Frequencies --   1241.6797              1280.3436              1323.5274
 Red. masses --      2.7984                 2.9062                 1.3901
 Frc consts  --      2.5420                 2.8069                 1.4347
 IR Inten    --      7.0751                51.6642                 2.1238

                     40                     41                     42
                      A                      A                      A
 Frequencies --   1346.3334              1362.7071              1391.4091
 Red. masses --      3.2177                 1.9867                 5.0208
 Frc consts  --      3.4364                 2.1736                 5.7271
 IR Inten    --     74.6999                 7.3824                53.9191

                     43                     44                     45
                      A                      A                      A
 Frequencies --   1417.7340              1462.8986              1487.1136
 Red. masses --      2.9385                 4.5447                 2.3216
 Frc consts  --      3.4799                 5.7304                 3.0251
 IR Inten    --    116.5048                44.5394                 3.5359

                     46                     47                     48
                      A                      A                      A
 Frequencies --   1570.2820              1577.4889              1588.3763
 Red. masses --      3.8056                 3.7893                 3.2169
 Frc consts  --      5.5287                 5.5558                 4.7819
 IR Inten    --     45.8514                18.4797                17.2798

                     49                     50                     51
                      A                      A                      A
 Frequencies --   1611.8066              1625.5906              3058.7190
 Red. masses --      2.1221                 5.0701                 1.0667
 Frc consts  --      3.2483                 7.8939                 5.8797
 IR Inten    --    444.0577                20.4557                90.5423

                     52                     53                     54
                      A                      A                      A
 Frequencies --   3171.1983              3173.9889              3194.5638
 Red. masses --      1.0898                 1.0879                 1.0949
 Frc consts  --      6.4569                 6.4574                 6.5835
 IR Inten    --     18.4863                 6.2558                 8.8216

                     55                     56                     57
                      A                      A                      A
 Frequencies --   3259.5521              3261.8945              3627.1455
 Red. masses --      1.0949                 1.0966                 1.0869
 Frc consts  --      6.8540                 6.8742                 8.4252
 IR Inten    --      2.5097                 1.1795               144.9993

 - Thermochemistry -
 -------------------
 Temperature   298.150 Kelvin.  Pressure   1.00000 Atm.
 Atom     1 has atomic number  7 and mass  14.00307

 Molecular mass:   205.04222 amu.
 Principal axes and moments of inertia in atomic units:
                           1         2         3
     Eigenvalues --  1011.374616162.532337123.14725
           X            1.00000  -0.00030  -0.00202
           Y            0.00028   0.99998  -0.00633
           Z            0.00202   0.00633   0.99998
 This molecule is an asymmetric top.
 Rotational symmetry number  1.
 Warning -- assumption of classical behavior for rotation
           may cause significant error
 Rotational temperatures (Kelvin)      0.08564     0.01405     0.01216
 Rotational constants (GHZ):           1.78444     0.29286     0.25336
 Zero-point vibrational energy     396264.6 (Joules/Mol)
                                   94.70952 (Kcal/Mol)
 Warning -- explicit consideration of  16 degrees of freedom as
           vibrations may cause significant error
 Vibrational temperatures:     48.19    96.93   138.60   195.42   278.97
          (Kelvin)            374.91   411.96   443.86   485.45   501.17
                              540.06   549.29   708.49   746.96   767.69
                              879.12   930.07   971.91   984.81  1031.73
                             1069.62  1121.83  1141.64  1197.38  1234.16
                             1277.04  1324.05  1376.20  1443.89  1471.29
                             1489.08  1535.99  1562.42  1611.89  1727.31
                             1733.14  1786.50  1842.13  1904.26  1937.07
                             1960.63  2001.93  2039.80  2104.78  2139.62
                             2259.29  2269.65  2285.32  2319.03  2338.86
                             4400.81  4562.65  4566.66  4596.26  4689.77
                             4693.14  5218.65

 Zero-point correction=                           0.150929 (Hartree/Particle)
 Thermal correction to Energy=                    0.162263
 Thermal correction to Enthalpy=                  0.163207
 Thermal correction to Gibbs Free Energy=         0.112237
 Sum of electronic and zero-point Energies=           -980.790771
 Sum of electronic and thermal Energies=              -980.779438
 Sum of electronic and thermal Enthalpies=            -980.778494
 Sum of electronic and thermal Free Energies=         -980.829463

                     E (Thermal)             CV                S
                      KCal/Mol        Cal/Mol-Kelvin    Cal/Mol-Kelvin
 Total                  101.821             43.443            107.275
 Electronic               0.000              0.000              0.000
 Translational            0.889              2.981             41.858
 Rotational               0.889              2.981             32.162
 Vibrational            100.044             37.481             33.254
 Vibration     1          0.594              1.983              5.611
 Vibration     2          0.598              1.970              4.229
 Vibration     3          0.603              1.952              3.527
 Vibration     4          0.614              1.918              2.862
 Vibration     5          0.635              1.848              2.190
 Vibration     6          0.669              1.745              1.658
 Vibration     7          0.684              1.699              1.496
 Vibration     8          0.698              1.658              1.370
 Vibration     9          0.718              1.601              1.224
 Vibration    10          0.726              1.579              1.174
 Vibration    11          0.746              1.523              1.058
 Vibration    12          0.751              1.509              1.032
 Vibration    13          0.848              1.267              0.677
 Vibration    14          0.874              1.208              0.612
 Vibration    15          0.889              1.176              0.579
 Vibration    16          0.970              1.009              0.431

                           ! Non-Optimized Parameters !
 Normal termination of Gaussian 16 at Wed May 17 20:43:15 2023.
