 Gaussian 16, Revision A.03,
 Gaussian 16:  ES64L-G16RevA.03 25-Dec-2016

 -----------------------------
 # opt freq b3lyp/6-31g(2df,p)
 -----------------------------

 -------------------
 Title Card Required
 -------------------
 Symbolic Z-matrix:
 Charge =  0 Multiplicity = 1

 SCF Done:  E(RB3LYP) =  -958.708950154     A.U. after   29 cycles
 SCF Done:  E(RB3LYP) =  -958.901011122     A.U. after   23 cycles
 SCF Done:  E(RB3LYP) =  -959.144500466     A.U. after   22 cycles
 SCF Done:  E(RB3LYP) =  -959.310630788     A.U. after   19 cycles
 SCF Done:  E(RB3LYP) =  -959.451424636     A.U. after   17 cycles
 SCF Done:  E(RB3LYP) =  -959.555839206     A.U. after   16 cycles
 SCF Done:  E(RB3LYP) =  -959.559662183     A.U. after   12 cycles
 SCF Done:  E(RB3LYP) =  -959.657230559     A.U. after   16 cycles
 SCF Done:  E(RB3LYP) =  -959.704718135     A.U. after   16 cycles
 SCF Done:  E(RB3LYP) =  -959.747206077     A.U. after   16 cycles
 SCF Done:  E(RB3LYP) =  -960.107592228     A.U. after   11 cycles
 SCF Done:  E(RB3LYP) =  -960.107603470     A.U. after   10 cycles
 SCF Done:  E(RB3LYP) =  -960.107616234     A.U. after   11 cycles
 SCF Done:  E(RB3LYP) =  -960.107636084     A.U. after    9 cycles
 SCF Done:  E(RB3LYP) =  -960.107641704     A.U. after    8 cycles
 SCF Done:  E(RB3LYP) =  -960.107645678     A.U. after    9 cycles
 SCF Done:  E(RB3LYP) =  -960.107646703     A.U. after    8 cycles
 SCF Done:  E(RB3LYP) =  -960.107647872     A.U. after    8 cycles
 SCF Done:  E(RB3LYP) =  -960.107648561     A.U. after    8 cycles
 Optimization completed.
    -- Stationary point found.
 Normal termination of Gaussian 16 at Fri May 19 18:11:52 2023.

 ----------------------------------------------------------------------
 #N Geom=AllCheck Guess=TCheck SCRF=Check GenChk RB3LYP/6-31G(2df,p) Fr
 eq
 ----------------------------------------------------------------------

 Structure from the checkpoint file:  "NNn1cnccnccqdSrcn1.chk"
 -------------------
 Title Card Required
 -------------------
 Charge =  0 Multiplicity = 1

                         Standard orientation:
 ---------------------------------------------------------------------
 Center     Atomic      Atomic             Coordinates (Angstroms)
 Number     Number       Type             X           Y           Z
 ---------------------------------------------------------------------
      1          7           0        4.219690    1.764605   -0.005179
      2          7           0        4.615117    0.420462    0.002612
      3          7           0        2.483798   -0.496278    0.000238
      4          6           0        3.769322   -0.627436    0.000640
      5          7           0        1.877311   -1.756418    0.000011
      6          6           0        0.590572   -1.762466    0.000207
      7          6           0       -0.345223   -0.654725    0.000690
      8          7           0       -1.656388   -0.785224   -0.000030
      9          6           0       -2.158997    0.494611    0.001111
     10          6           0       -3.551535    0.854017    0.001529
     11         16           0       -4.849497   -0.134777   -0.002295
     12          6           0       -1.104883    1.410620    0.002414
     13          7           0        0.026898    0.673496    0.001951
     14          1           0        3.637983    1.931770    0.814399
     15          1           0        3.627320    1.919489   -0.819692
     16          1           0        5.608409    0.266870   -0.006899
     17          1           0        4.240962   -1.611255    0.000547
     18          1           0        0.117267   -2.740291   -0.000065
     19          1           0        1.007719    0.931732    0.003214
     20          1           0       -1.099409    2.488954    0.003703
     21          1           0       -3.708807    1.936933    0.004737
 ---------------------------------------------------------------------

 SCF Done:  E(RB3LYP) =  -960.107648561     A.U. after    1 cycles

 The electronic state is 1-A.
 Alpha  occ. eigenvalues --  -88.83472 -14.41490 -14.39676 -14.38742 -14.36134
 Alpha  occ. eigenvalues --  -14.35646 -14.32154 -10.27964 -10.25261 -10.24053
 Alpha  occ. eigenvalues --  -10.23492 -10.22884 -10.21769  -7.89987  -5.86311
 Alpha  occ. eigenvalues --   -5.86273  -5.85478  -1.04069  -1.03131  -0.99054
 Alpha  occ. eigenvalues --   -0.88744  -0.86990  -0.82059  -0.79610  -0.74378
 Alpha  occ. eigenvalues --   -0.67199  -0.63632  -0.62893  -0.60186  -0.57881
 Alpha  occ. eigenvalues --   -0.54581  -0.53930  -0.53203  -0.50373  -0.48507
 Alpha  occ. eigenvalues --   -0.46167  -0.45695  -0.43022  -0.41933  -0.41698
 Alpha  occ. eigenvalues --   -0.36909  -0.35941  -0.35365  -0.32627  -0.30909
 Alpha  occ. eigenvalues --   -0.29179  -0.28071  -0.25262  -0.24922  -0.21975
 Alpha  occ. eigenvalues --   -0.19963
 Alpha virt. eigenvalues --   -0.07384  -0.05096   0.01503   0.03918   0.05954
 Alpha virt. eigenvalues --    0.07550   0.10010   0.10689   0.11242   0.12015
 Alpha virt. eigenvalues --    0.12898   0.13750   0.15140   0.16126   0.16982

 Mulliken charges:
               1
     1  N   -0.449864
     2  N   -0.277005
     3  N   -0.269835
     4  C    0.176846
     5  N   -0.215128
     6  C   -0.028234
     7  C    0.329943
     8  N   -0.324426
     9  C    0.240249
    10  C   -0.075508
    11  S   -0.280885
    12  C   -0.149585
    13  N   -0.269701
    14  H    0.259226
    15  H    0.258916
    16  H    0.276505
    17  H    0.128605
    18  H    0.145501
    19  H    0.260683
    20  H    0.149429
    21  H    0.114268
 Sum of Mulliken charges =  -0.00000

 Dipole moment (field-independent basis, Debye):
    X=              8.6292    Y=              3.7932    Z=              0.0037  Tot=              9.4262
 Quadrupole moment (field-independent basis, Debye-Ang):
   XX=            -86.2896   YY=            -78.1290   ZZ=            -81.4418
   XY=             -5.7244   XZ=             -0.0453   YZ=              0.0402

  Exact polarizability: 281.119   7.593 122.187   0.070   0.066  59.409
 Approx polarizability: 426.546  34.511 212.689   0.231   0.168 100.360

                      1                      2                      3
                      A                      A                      A
 Frequencies --     17.7798                37.7530                69.6379
 Red. masses --      3.9001                 7.7726                 6.3800
 Frc consts  --      0.0007                 0.0065                 0.0182
 IR Inten    --      0.9065                 0.1818                 1.1092

                      4                      5                      6
                      A                      A                      A
 Frequencies --    109.0820               114.2589               135.5221
 Red. masses --      2.6960                 9.8099                 2.1315
 Frc consts  --      0.0189                 0.0755                 0.0231
 IR Inten    --      2.2294                 2.6054                 9.6698

                      7                      8                      9
                      A                      A                      A
 Frequencies --    153.7424               204.0418               248.1789
 Red. masses --      3.9227                 5.5312                 4.5625
 Frc consts  --      0.0546                 0.1357                 0.1656
 IR Inten    --      1.2173                 2.8176                 5.4858

                     10                     11                     12
                      A                      A                      A
 Frequencies --    319.8903               328.9079               343.4766
 Red. masses --      6.0392                 1.7421                 2.8068
 Frc consts  --      0.3641                 0.1110                 0.1951
 IR Inten    --     16.8531                61.6207                41.0195

                     13                     14                     15
                      A                      A                      A
 Frequencies --    364.5128               422.0334               503.3464
 Red. masses --      6.5576                 6.2771                 1.5519
 Frc consts  --      0.5134                 0.6587                 0.2317
 IR Inten    --      8.9662                13.8135                60.9419

                     16                     17                     18
                      A                      A                      A
 Frequencies --    565.1615               603.7520               673.3561
 Red. masses --      3.3959                 6.6906                 3.1974
 Frc consts  --      0.6391                 1.4369                 0.8542
 IR Inten    --      0.0398                 0.5970                 7.5615

                     19                     20                     21
                      A                      A                      A
 Frequencies --    718.2411               753.7189               761.6559
 Red. masses --      4.5935                 6.0088                 7.0144
 Frc consts  --      1.3962                 2.0112                 2.3975
 IR Inten    --     26.5248                 0.3143                47.8982

                     22                     23                     24
                      A                      A                      A
 Frequencies --    775.0419               795.0682               838.7694
 Red. masses --      1.2174                 1.2525                 5.1352
 Frc consts  --      0.4309                 0.4665                 2.1286
 IR Inten    --     47.2286                 0.1905                21.0282

                     25                     26                     27
                      A                      A                      A
 Frequencies --    907.2696               926.4688               948.4465
 Red. masses --      1.7368                 2.3108                 1.3452
 Frc consts  --      0.8423                 1.1686                 0.7129
 IR Inten    --     13.2418                94.3358                 3.7920

                     28                     29                     30
                      A                      A                      A
 Frequencies --    977.3452              1010.9465              1014.9419
 Red. masses --      6.7031                 3.7532                 1.4230
 Frc consts  --      3.7724                 2.2600                 0.8637
 IR Inten    --     69.0829                37.0872                 5.0120

                     31                     32                     33
                      A                      A                      A
 Frequencies --   1033.5052              1088.6103              1114.8406
 Red. masses --      3.5051                 3.2132                 2.1863
 Frc consts  --      2.2058                 2.2436                 1.6010
 IR Inten    --     30.0963                42.7163                26.1465

                     34                     35                     36
                      A                      A                      A
 Frequencies --   1116.3229              1198.7841              1318.6870
 Red. masses --      1.4393                 1.6752                 1.8373
 Frc consts  --      1.0568                 1.4184                 1.8824
 IR Inten    --     26.7823                78.3962                92.7133

                     37                     38                     39
                      A                      A                      A
 Frequencies --   1334.1699              1344.5922              1349.9644
 Red. masses --      3.0017                 1.7226                 1.1447
 Frc consts  --      3.1480                 1.8349                 1.2291
 IR Inten    --    150.2016                35.8777                 1.1167

                     40                     41                     42
                      A                      A                      A
 Frequencies --   1356.7356              1360.1038              1413.7550
 Red. masses --      1.6517                 2.4198                 3.9637
 Frc consts  --      1.7913                 2.6374                 4.6677
 IR Inten    --     20.2228                34.1306               121.0823

                     43                     44                     45
                      A                      A                      A
 Frequencies --   1442.9262              1522.8771              1538.7437
 Red. masses --      3.4988                 1.8029                 5.1506
 Frc consts  --      4.2920                 2.4635                 7.1852
 IR Inten    --     31.0206                60.0848                17.2200

                     46                     47                     48
                      A                      A                      A
 Frequencies --   1540.6352              1650.9331              1699.2217
 Red. masses --      4.6815                 7.1987                 3.0042
 Frc consts  --      6.5468                11.5601                 5.1106
 IR Inten    --    137.7898               240.5464               549.6230

                     49                     50                     51
                      A                      A                      A
 Frequencies --   1703.7157              3066.0079              3126.2242
 Red. masses --      1.3526                 1.0854                 1.0899
 Frc consts  --      2.3133                 6.0117                 6.2761
 IR Inten    --     35.8639                23.0411                20.4620

                     52                     53                     54
                      A                      A                      A
 Frequencies --   3181.3151              3265.9509              3445.2634
 Red. masses --      1.0892                 1.0977                 1.0462
 Frc consts  --      6.4948                 6.8982                 7.3169
 IR Inten    --      4.2501                 0.0020                 1.6921

                     55                     56                     57
                      A                      A                      A
 Frequencies --   3516.0468              3532.5969              3669.4057
 Red. masses --      1.0954                 1.0828                 1.0791
 Frc consts  --      7.9785                 7.9612                 8.5609
 IR Inten    --      1.7204               276.8368               162.4060

 - Thermochemistry -
 -------------------
 Temperature   298.150 Kelvin.  Pressure   1.00000 Atm.
 Atom     1 has atomic number  7 and mass  14.00307

 Molecular mass:   196.05312 amu.
 Principal axes and moments of inertia in atomic units:
                           1         2         3
     Eigenvalues --   788.661387016.175907795.22042
           X            1.00000  -0.00017  -0.00003
           Y            0.00017   1.00000   0.00009
           Z            0.00003  -0.00009   1.00000
 This molecule is an asymmetric top.
 Rotational symmetry number  1.
 Warning -- assumption of classical behavior for rotation
           may cause significant error
 Rotational temperatures (Kelvin)      0.10982     0.01234     0.01111
 Rotational constants (GHZ):           2.28836     0.25723     0.23152
 Zero-point vibrational energy     410165.3 (Joules/Mol)
                                   98.03186 (Kcal/Mol)
 Warning -- explicit consideration of  17 degrees of freedom as
           vibrations may cause significant error
 Vibrational temperatures:     25.58    54.32   100.19   156.94   164.39
          (Kelvin)            194.99   221.20   293.57   357.07   460.25
                              473.23   494.19   524.45   607.21   724.20
                              813.14   868.66   968.81  1033.39  1084.43
                             1095.85  1115.11  1143.93  1206.80  1305.36
                             1332.98  1364.60  1406.18  1454.53  1460.28
                             1486.98  1566.27  1604.01  1606.14  1724.78
                             1897.30  1919.57  1934.57  1942.30  1952.04
                             1956.89  2034.08  2076.05  2191.08  2213.91
                             2216.63  2375.32  2444.80  2451.27  4411.30
                             4497.94  4577.20  4698.97  4956.97  5058.81
                             5082.62  5279.46

 Zero-point correction=                           0.156224 (Hartree/Particle)
 Thermal correction to Energy=                    0.168847
 Thermal correction to Enthalpy=                  0.169792
 Thermal correction to Gibbs Free Energy=         0.114509
 Sum of electronic and zero-point Energies=           -959.951425
 Sum of electronic and thermal Energies=              -959.938801
 Sum of electronic and thermal Enthalpies=            -959.937857
 Sum of electronic and thermal Free Energies=         -959.993139

                     E (Thermal)             CV                S
                      KCal/Mol        Cal/Mol-Kelvin    Cal/Mol-Kelvin
 Total                  105.953             44.608            116.351
 Electronic               0.000              0.000              0.000
 Translational            0.889              2.981             41.725
 Rotational               0.889              2.981             32.134
 Vibrational            104.176             38.647             42.492
 Vibration     1          0.593              1.986              6.868
 Vibration     2          0.594              1.982              5.374
 Vibration     3          0.598              1.969              4.164
 Vibration     4          0.606              1.942              3.285
 Vibration     5          0.607              1.938              3.195
 Vibration     6          0.613              1.918              2.866
 Vibration     7          0.619              1.899              2.625
 Vibration     8          0.640              1.834              2.096
 Vibration     9          0.662              1.766              1.743
 Vibration    10          0.706              1.635              1.311
 Vibration    11          0.712              1.618              1.265
 Vibration    12          0.722              1.589              1.196
 Vibration    13          0.738              1.545              1.103
 Vibration    14          0.784              1.422              0.885
 Vibration    15          0.859              1.243              0.650
 Vibration    16          0.921              1.107              0.514
 Vibration    17          0.962              1.024              0.443

                           ! Non-Optimized Parameters !
 Normal termination of Gaussian 16 at Fri May 19 19:00:35 2023.
