 Gaussian 16, Revision A.03,
 Gaussian 16:  ES64L-G16RevA.03 25-Dec-2016

 -----------------------------
 # opt freq b3lyp/6-31g(2df,p)
 -----------------------------

 -------------------
 Title Card Required
 -------------------
 Symbolic Z-matrix:
 Charge =  0 Multiplicity = 2

 SCF Done:  E(UB3LYP) =  -1232.04330816     A.U. after   24 cycles
 SCF Done:  E(UB3LYP) =  -1232.07846891     A.U. after   20 cycles
 SCF Done:  E(UB3LYP) =  -1232.07342837     A.U. after   22 cycles
 SCF Done:  E(UB3LYP) =  -1232.10172604     A.U. after   20 cycles
 SCF Done:  E(UB3LYP) =  -1232.10792146     A.U. after   20 cycles
 SCF Done:  E(UB3LYP) =  -1232.11071059     A.U. after   19 cycles
 SCF Done:  E(UB3LYP) =  -1232.11156076     A.U. after   19 cycles
 SCF Done:  E(UB3LYP) =  -1232.11216049     A.U. after   19 cycles
 SCF Done:  E(UB3LYP) =  -1232.11162970     A.U. after   19 cycles
 SCF Done:  E(UB3LYP) =  -1232.11298548     A.U. after   18 cycles
 SCF Done:  E(UB3LYP) =  -1232.11379749     A.U. after   16 cycles
 SCF Done:  E(UB3LYP) =  -1232.11384007     A.U. after   18 cycles
 SCF Done:  E(UB3LYP) =  -1232.11387329     A.U. after   18 cycles
 SCF Done:  E(UB3LYP) =  -1232.11389483     A.U. after   14 cycles
 SCF Done:  E(UB3LYP) =  -1232.11392541     A.U. after   17 cycles
 SCF Done:  E(UB3LYP) =  -1232.11392822     A.U. after   14 cycles
 SCF Done:  E(UB3LYP) =  -1232.11392860     A.U. after   14 cycles
 SCF Done:  E(UB3LYP) =  -1232.11392896     A.U. after   14 cycles
 SCF Done:  E(UB3LYP) =  -1232.11392909     A.U. after   12 cycles
 Optimization completed.
    -- Stationary point found.
 Normal termination of Gaussian 16 at Wed May 17 15:20:11 2023.

 ----------------------------------------------------------------------
 #N Geom=AllCheck Guess=TCheck SCRF=Check GenChk UB3LYP/6-31G(2df,p) Fr
 eq
 ----------------------------------------------------------------------

 Structure from the checkpoint file:  "NNN[C]1CqdSrCdCCdCC1dS.chk"
 -------------------
 Title Card Required
 -------------------
 Charge =  0 Multiplicity = 2

                         Standard orientation:
 ---------------------------------------------------------------------
 Center     Atomic      Atomic             Coordinates (Angstroms)
 Number     Number       Type             X           Y           Z
 ---------------------------------------------------------------------
      1          7           0        3.556578    0.838993   -0.224550
      2          7           0        2.485405   -0.016398   -0.567001
      3          7           0        1.301516    0.603985   -0.259473
      4          6           0        0.079750    0.109561   -0.079251
      5          6           0       -0.923534    1.196973    0.080895
      6         16           0       -0.380423    2.788406    0.319406
      7          6           0       -2.331586    1.013240    0.006111
      8          6           0       -3.096097   -0.103325   -0.212860
      9          6           0       -2.681162   -1.442459   -0.325925
     10          6           0       -1.417851   -1.952482   -0.183650
     11          6           0       -0.156298   -1.326622    0.034382
     12         16           0        1.102732   -2.397512    0.487882
     13          1           0        4.279310    0.714062   -0.924072
     14          1           0        3.936782    0.593251    0.687923
     15          1           0        2.472428   -0.961766   -0.140955
     16          1           0        1.358215    1.635751   -0.215348
     17          1           0       -2.874725    1.947133    0.103366
     18          1           0       -4.166544    0.069112   -0.286058
     19          1           0       -3.467985   -2.172580   -0.493776
     20          1           0       -1.338240   -3.034631   -0.208726
 ---------------------------------------------------------------------

 SCF Done:  E(UB3LYP) =  -1232.11392909     A.U. after    1 cycles

 The electronic state is 2-A.
 Alpha  occ. eigenvalues --  -88.84826 -88.84184 -14.43417 -14.42136 -14.37993
 Alpha  occ. eigenvalues --  -10.27767 -10.25641 -10.25620 -10.21377 -10.21268
 Alpha  occ. eigenvalues --  -10.21203 -10.21107  -7.91394  -7.90748  -5.87728
 Alpha  occ. eigenvalues --   -5.87702  -5.87086  -5.87023  -5.86972  -5.86326
 Alpha  occ. eigenvalues --   -1.07751  -0.95179  -0.86362  -0.82469  -0.81086
 Alpha  occ. eigenvalues --   -0.76780  -0.72683  -0.68400  -0.66205  -0.60831
 Alpha  occ. eigenvalues --   -0.59841  -0.57668  -0.54518  -0.52583  -0.50773
 Alpha  occ. eigenvalues --   -0.49356  -0.48325  -0.45144  -0.43227  -0.40361
 Alpha  occ. eigenvalues --   -0.38735  -0.37990  -0.36869  -0.34980  -0.33442
 Alpha  occ. eigenvalues --   -0.32030  -0.30517  -0.26290  -0.23830  -0.22940
 Alpha  occ. eigenvalues --   -0.22747  -0.19692
 Alpha virt. eigenvalues --   -0.08326  -0.06788   0.04420   0.05934   0.07607
 Alpha virt. eigenvalues --    0.08614   0.09258   0.10004   0.11533   0.12169
 Alpha virt. eigenvalues --    0.14156   0.14960   0.17226   0.17643   0.18678

  Beta  occ. eigenvalues --  -88.84647 -88.84050 -14.42960 -14.41871 -14.37976
  Beta  occ. eigenvalues --  -10.27828 -10.25552 -10.25541 -10.21352 -10.21272
  Beta  occ. eigenvalues --  -10.21169 -10.21100  -7.91219  -7.90618  -5.87626
  Beta  occ. eigenvalues --   -5.87124  -5.87012  -5.86866  -5.86587  -5.86249
  Beta  occ. eigenvalues --   -1.07159  -0.94803  -0.86129  -0.82225  -0.80904
  Beta  occ. eigenvalues --   -0.76378  -0.72511  -0.67805  -0.65748  -0.60438
  Beta  occ. eigenvalues --   -0.59326  -0.57463  -0.54163  -0.52334  -0.50649
  Beta  occ. eigenvalues --   -0.49075  -0.48161  -0.43899  -0.43061  -0.40272
  Beta  occ. eigenvalues --   -0.38157  -0.37289  -0.36731  -0.34591  -0.32729
  Beta  occ. eigenvalues --   -0.31231  -0.30169  -0.24080  -0.22577  -0.22428
  Beta  occ. eigenvalues --   -0.22186
  Beta virt. eigenvalues --   -0.13862  -0.06828  -0.05641   0.04742   0.06016
  Beta virt. eigenvalues --    0.07921   0.08855   0.09507   0.10258   0.11829
  Beta virt. eigenvalues --    0.12304   0.14501   0.15106   0.17360   0.17925

 Mulliken charges and spin densities:
               1          2
     1  N   -0.445295   0.001361
     2  N   -0.204561   0.106572
     3  N   -0.187386   0.205850
     4  C    0.204961  -0.025189
     5  C    0.140699   0.042123
     6  S   -0.405330   0.245979
     7  C   -0.110348   0.005171
     8  C   -0.090404   0.017421
     9  C   -0.100040   0.038871
    10  C   -0.095051  -0.015504
    11  C    0.098507   0.060259
    12  S   -0.409215   0.316123
    13  H    0.267188  -0.000198
    14  H    0.259227   0.006896
    15  H    0.292023   0.002705
    16  H    0.301203  -0.006093
    17  H    0.131251  -0.000383
    18  H    0.110897  -0.000709
    19  H    0.109472  -0.001718
    20  H    0.132201   0.000465
 Sum of Mulliken charges =  -0.00000   1.00000

 Dipole moment (field-independent basis, Debye):
    X=              0.8951    Y=             -1.0912    Z=             -0.9593  Tot=              1.7065
 Quadrupole moment (field-independent basis, Debye-Ang):
   XX=            -59.2762   YY=            -98.5522   ZZ=            -86.4127
   XY=              5.6634   XZ=              0.9371   YZ=              0.7085

  Exact polarizability: 214.903  -9.887 228.237   5.294   0.798  70.738
 Approx polarizability: 399.012 -22.936 478.284  12.899   2.626 128.444

                      1                      2                      3
                      A                      A                      A
 Frequencies --     24.4435                77.8106               100.6768
 Red. masses --      9.0272                 4.3222                 3.8993
 Frc consts  --      0.0032                 0.0154                 0.0233
 IR Inten    --      5.1073                 0.4145                 8.4675

                      4                      5                      6
                      A                      A                      A
 Frequencies --    141.0488               198.5365               242.8584
 Red. masses --      4.2181                 5.3789                 2.4734
 Frc consts  --      0.0494                 0.1249                 0.0860
 IR Inten    --      4.2431                 2.5340                 7.3713

                      7                      8                      9
                      A                      A                      A
 Frequencies --    277.2400               293.0209               329.6824
 Red. masses --      9.1061                 6.5874                 5.5864
 Frc consts  --      0.4124                 0.3332                 0.3577
 IR Inten    --      3.1612                 0.6164                18.4557

                     10                     11                     12
                      A                      A                      A
 Frequencies --    336.9597               369.6185               414.4746
 Red. masses --      1.8277                 7.2454                 3.9378
 Frc consts  --      0.1223                 0.5832                 0.3986
 IR Inten    --     22.5292                 1.2235                 2.7691

                     13                     14                     15
                      A                      A                      A
 Frequencies --    448.6921               463.1601               494.8855
 Red. masses --      4.5526                 6.0360                 5.5357
 Frc consts  --      0.5400                 0.7629                 0.7988
 IR Inten    --      1.4993                 3.8732                 6.7607

                     16                     17                     18
                      A                      A                      A
 Frequencies --    541.3220               635.0145               706.0501
 Red. masses --      6.8077                 4.0512                 3.0053
 Frc consts  --      1.1753                 0.9625                 0.8827
 IR Inten    --      0.4874                 1.5551                20.2128

                     19                     20                     21
                      A                      A                      A
 Frequencies --    716.0198               777.7865               795.2538
 Red. masses --      5.2512                 2.1204                 2.6594
 Frc consts  --      1.5862                 0.7558                 0.9909
 IR Inten    --     26.2607                10.3211                21.3307

                     22                     23                     24
                      A                      A                      A
 Frequencies --    808.1715               839.9588               897.2537
 Red. masses --      1.6082                 1.2782                 1.3947
 Frc consts  --      0.6189                 0.5313                 0.6615
 IR Inten    --    115.8027                67.4969                 5.0085

                     25                     26                     27
                      A                      A                      A
 Frequencies --    909.8155               941.2059              1004.9852
 Red. masses --      1.9550                 5.9504                 1.3626
 Frc consts  --      0.9535                 3.1057                 0.8108
 IR Inten    --     83.2321                10.0338                 0.4742

                     28                     29                     30
                      A                      A                      A
 Frequencies --   1012.3730              1020.3310              1046.5429
 Red. masses --      2.8128                 1.3162                 7.5371
 Frc consts  --      1.6985                 0.8073                 4.8637
 IR Inten    --      8.9629                 0.3540                52.2007

                     31                     32                     33
                      A                      A                      A
 Frequencies --   1093.9653              1141.2094              1200.3308
 Red. masses --      3.5199                 2.4121                 2.2669
 Frc consts  --      2.4819                 1.8509                 1.9244
 IR Inten    --     92.6604                36.7228                30.8589

                     34                     35                     36
                      A                      A                      A
 Frequencies --   1242.4664              1289.0982              1302.6764
 Red. masses --      1.9961                 2.0387                 1.4910
 Frc consts  --      1.8155                 1.9961                 1.4907
 IR Inten    --     18.0153                20.8747                 7.7887

                     37                     38                     39
                      A                      A                      A
 Frequencies --   1321.9704              1336.8723              1404.9727
 Red. masses --      1.3821                 1.3893                 2.3608
 Frc consts  --      1.4231                 1.4629                 2.7456
 IR Inten    --     38.4626                16.9740                 3.0949

                     40                     41                     42
                      A                      A                      A
 Frequencies --   1446.1093              1468.6557              1489.9134
 Red. masses --      1.4744                 1.5897                 2.1040
 Frc consts  --      1.8166                 2.0203                 2.7518
 IR Inten    --     20.5413                31.6263                12.7457

                     43                     44                     45
                      A                      A                      A
 Frequencies --   1550.3461              1574.4700              1634.8892
 Red. masses --      2.0731                 3.1636                 4.7113
 Frc consts  --      2.9359                 4.6206                 7.4194
 IR Inten    --      6.4665                 3.9181                 4.6545

                     46                     47                     48
                      A                      A                      A
 Frequencies --   1677.0988              3092.4754              3154.5217
 Red. masses --      1.0864                 1.0810                 1.0834
 Frc consts  --      1.8004                 6.0911                 6.3518
 IR Inten    --      8.9622                46.0830                 5.3507

                     49                     50                     51
                      A                      A                      A
 Frequencies --   3169.1742              3184.6718              3190.9157
 Red. masses --      1.0871                 1.0904                 1.0911
 Frc consts  --      6.4329                 6.5159                 6.5458
 IR Inten    --      9.7399                 2.9681                 5.2446

                     52                     53                     54
                      A                      A                      A
 Frequencies --   3193.7046              3460.9088              3581.0920
 Red. masses --      1.0788                 1.0522                 1.0911
 Frc consts  --      6.4832                 7.4256                 8.2444
 IR Inten    --     73.2697                 1.0700                17.9590

 - Thermochemistry -
 -------------------
 Temperature   298.150 Kelvin.  Pressure   1.00000 Atm.
 Atom     1 has atomic number  7 and mass  14.00307

 Molecular mass:   198.01597 amu.
 Principal axes and moments of inertia in atomic units:
                           1         2         3
     Eigenvalues --  2183.936902628.584064661.20689
           X            0.99624   0.08659   0.00150
           Y           -0.08659   0.99624   0.00250
           Z           -0.00127  -0.00262   1.00000
 This molecule is an asymmetric top.
 Rotational symmetry number  1.
 Warning -- assumption of classical behavior for rotation
           may cause significant error
 Rotational temperatures (Kelvin)      0.03966     0.03295     0.01858
 Rotational constants (GHZ):           0.82637     0.68658     0.38718
 Zero-point vibrational energy     389191.3 (Joules/Mol)
                                   93.01895 (Kcal/Mol)
 Warning -- explicit consideration of  16 degrees of freedom as
           vibrations may cause significant error
 Vibrational temperatures:     35.17   111.95   144.85   202.94   285.65
          (Kelvin)            349.42   398.89   421.59   474.34   484.81
                              531.80   596.34   645.57   666.38   712.03
                              778.84   913.64  1015.85  1030.19  1119.06
                             1144.19  1162.78  1208.51  1290.95  1309.02
                             1354.19  1445.95  1456.58  1468.03  1505.74
                             1573.97  1641.95  1727.01  1787.63  1854.72
                             1874.26  1902.02  1923.46  2021.44  2080.63
                             2113.07  2143.65  2230.60  2265.31  2352.24
                             2412.97  4449.38  4538.65  4559.73  4582.03
                             4591.02  4595.03  4979.48  5152.39

 Zero-point correction=                           0.148235 (Hartree/Particle)
 Thermal correction to Energy=                    0.159515
 Thermal correction to Enthalpy=                  0.160459
 Thermal correction to Gibbs Free Energy=         0.108989
 Sum of electronic and zero-point Energies=          -1231.965694
 Sum of electronic and thermal Energies=             -1231.954414
 Sum of electronic and thermal Enthalpies=           -1231.953470
 Sum of electronic and thermal Free Energies=        -1232.004940

                     E (Thermal)             CV                S
                      KCal/Mol        Cal/Mol-Kelvin    Cal/Mol-Kelvin
 Total                  100.097             42.147            108.328
 Electronic               0.000              0.000              1.377
 Translational            0.889              2.981             41.754
 Rotational               0.889              2.981             31.659
 Vibrational             98.320             36.185             33.536
 Vibration     1          0.593              1.985              6.236
 Vibration     2          0.599              1.964              3.945
 Vibration     3          0.604              1.949              3.441
 Vibration     4          0.615              1.912              2.790
 Vibration     5          0.637              1.842              2.147
 Vibration     6          0.659              1.775              1.782
 Vibration     7          0.678              1.716              1.551
 Vibration     8          0.688              1.687              1.456
 Vibration     9          0.712              1.616              1.262
 Vibration    10          0.718              1.602              1.227
 Vibration    11          0.742              1.535              1.081
 Vibration    12          0.778              1.439              0.911
 Vibration    13          0.808              1.364              0.800
 Vibration    14          0.821              1.332              0.757
 Vibration    15          0.850              1.261              0.671
 Vibration    16          0.896              1.159              0.562

 Optimization completed.
    -- Stationary point found.
 Normal termination of Gaussian 16 at Wed May 17 17:11:56 2023.
