 Gaussian 16, Revision A.03,
 Gaussian 16:  ES64L-G16RevA.03 25-Dec-2016

 -----------------------------
 # opt freq b3lyp/6-31g(2df,p)
 -----------------------------

 -------------------
 Title Card Required
 -------------------
 Symbolic Z-matrix:
 Charge =  0 Multiplicity = 2

 SCF Done:  E(UB3LYP) =  -1155.92757997     A.U. after   53 cycles
 SCF Done:  E(UB3LYP) =  -1155.97317900     A.U. after   27 cycles
 SCF Done:  E(UB3LYP) =  -1156.00581906     A.U. after   61 cycles
 SCF Done:  E(UB3LYP) =  -1156.02785756     A.U. after   27 cycles
 SCF Done:  E(UB3LYP) =  -1156.03457839     A.U. after   30 cycles
 SCF Done:  E(UB3LYP) =  -1156.03689759     A.U. after   28 cycles
 SCF Done:  E(UB3LYP) =  -1156.03632789     A.U. after   20 cycles
 SCF Done:  E(UB3LYP) =  -1156.03915430     A.U. after   23 cycles
 SCF Done:  E(UB3LYP) =  -1156.04070266     A.U. after   23 cycles
 SCF Done:  E(UB3LYP) =  -1156.04173857     A.U. after   21 cycles
 SCF Done:  E(UB3LYP) =  -1156.04604107     A.U. after   20 cycles
 SCF Done:  E(UB3LYP) =  -1156.04593683     A.U. after   25 cycles
 SCF Done:  E(UB3LYP) =  -1156.04664255     A.U. after   20 cycles
 SCF Done:  E(UB3LYP) =  -1156.04667914     A.U. after   12 cycles
 SCF Done:  E(UB3LYP) =  -1156.04670108     A.U. after   18 cycles
 SCF Done:  E(UB3LYP) =  -1156.04671255     A.U. after   13 cycles
 SCF Done:  E(UB3LYP) =  -1156.04671558     A.U. after   17 cycles
 SCF Done:  E(UB3LYP) =  -1156.04671693     A.U. after   11 cycles
 SCF Done:  E(UB3LYP) =  -1156.04671714     A.U. after    9 cycles
 Optimization completed.
    -- Stationary point found.
 Normal termination of Gaussian 16 at Fri May 19 14:42:42 2023.

 ----------------------------------------------------------------------
 #N Geom=AllCheck Guess=TCheck SCRF=Check GenChk UB3LYP/6-31G(2df,p) Fr
 eq
 ----------------------------------------------------------------------

 Structure from the checkpoint file:  "NNNdCdCdCS[C]Cc1c[c]ccc1NCdO.chk"
 -------------------
 Title Card Required
 -------------------
 Charge =  0 Multiplicity = 2

                         Standard orientation:
 ---------------------------------------------------------------------
 Center     Atomic      Atomic             Coordinates (Angstroms)
 Number     Number       Type             X           Y           Z
 ---------------------------------------------------------------------
      1          7           0       -8.329332    0.129887    0.450648
      2          7           0       -7.165076   -0.142460   -0.281522
      3          7           0       -6.068273    0.492301    0.219461
      4          6           0       -4.919452    0.101266   -0.066474
      5          6           0       -3.715449   -0.209052   -0.294615
      6          6           0       -2.456793   -0.516804   -0.519428
      7         16           0       -1.115581    0.461631    0.123038
      8          6           0        0.221966   -0.338457   -0.445549
      9          6           0        1.508322    0.352348   -0.084645
     10          6           0        2.696086   -0.590871    0.029635
     11          6           0        2.493640   -1.951213    0.315575
     12          6           0        3.590942   -2.770620    0.365872
     13          6           0        4.893423   -2.384298    0.161678
     14          6           0        5.094793   -1.026623   -0.099829
     15          6           0        4.015136   -0.140114   -0.161207
     16          7           0        4.280531    1.227955   -0.464431
     17          6           0        4.098493    2.279317    0.395518
     18          8           0        4.437736    3.416523    0.164578
     19          1           0       -8.500706   -0.579608    1.160146
     20          1           0       -9.110561    0.150758   -0.194421
     21          1           0       -6.998737   -1.121692   -0.513647
     22          1           0       -2.109119   -1.367899   -1.100250
     23          1           0        1.461168    1.012038    0.796775
     24          1           0        1.701254    1.032068   -0.931937
     25          1           0        1.480125   -2.316719    0.442292
     26          1           0        5.728708   -3.073977    0.207146
     27          1           0        6.098390   -0.641817   -0.255623
     28          1           0        4.845100    1.439954   -1.276830
     29          1           0        3.600195    1.965562    1.332826
 ---------------------------------------------------------------------

 SCF Done:  E(UB3LYP) =  -1156.04671714     A.U. after    1 cycles

 The electronic state is 2-A.
 Alpha  occ. eigenvalues --  -88.92434 -19.11124 -14.41888 -14.39456 -14.36710
 Alpha  occ. eigenvalues --  -14.36480 -10.28152 -10.23804 -10.23550 -10.23370
 Alpha  occ. eigenvalues --  -10.21844 -10.21191 -10.21048 -10.21037 -10.21006
 Alpha  occ. eigenvalues --  -10.20292 -10.20085 -10.19568  -7.98529  -5.94816
 Alpha  occ. eigenvalues --   -5.94510  -5.94468  -1.05286  -1.03763  -0.94010
 Alpha  occ. eigenvalues --   -0.92414  -0.86423  -0.84819  -0.80434  -0.78087
 Alpha  occ. eigenvalues --   -0.75323  -0.74581  -0.71219  -0.66801  -0.63262
 Alpha  occ. eigenvalues --   -0.61995  -0.59796  -0.59125  -0.54725  -0.54061
 Alpha  occ. eigenvalues --   -0.53691  -0.51874  -0.50490  -0.48812  -0.47443
 Alpha  occ. eigenvalues --   -0.45892  -0.45031  -0.44549  -0.42739  -0.41736
 Alpha  occ. eigenvalues --   -0.40852  -0.40731  -0.39862  -0.38234  -0.37257
 Alpha  occ. eigenvalues --   -0.36547  -0.35783  -0.35565  -0.30248  -0.28859
 Alpha  occ. eigenvalues --   -0.28699  -0.26020  -0.25774  -0.25083  -0.24438
 Alpha  occ. eigenvalues --   -0.24192  -0.22687  -0.21321
 Alpha virt. eigenvalues --   -0.08562  -0.04697  -0.01520  -0.01357  -0.00199
 Alpha virt. eigenvalues --    0.02592   0.04312   0.06222   0.09354   0.09628
 Alpha virt. eigenvalues --    0.10699   0.11229   0.12291   0.13291   0.13707

  Beta  occ. eigenvalues --  -88.92433 -19.11127 -14.41888 -14.39455 -14.36710
  Beta  occ. eigenvalues --  -14.36476 -10.28155 -10.23805 -10.23551 -10.23427
  Beta  occ. eigenvalues --  -10.21838 -10.21060 -10.21036 -10.21030 -10.20168
  Beta  occ. eigenvalues --  -10.20089 -10.19593 -10.19469  -7.98528  -5.94815
  Beta  occ. eigenvalues --   -5.94505  -5.94469  -1.05285  -1.03769  -0.94005
  Beta  occ. eigenvalues --   -0.92413  -0.85844  -0.84608  -0.80279  -0.77937
  Beta  occ. eigenvalues --   -0.75223  -0.73657  -0.71099  -0.66760  -0.63183
  Beta  occ. eigenvalues --   -0.61402  -0.59690  -0.58492  -0.54549  -0.53972
  Beta  occ. eigenvalues --   -0.53533  -0.51873  -0.50472  -0.48610  -0.47141
  Beta  occ. eigenvalues --   -0.45818  -0.44231  -0.43926  -0.42316  -0.41726
  Beta  occ. eigenvalues --   -0.40604  -0.40344  -0.39815  -0.38082  -0.37054
  Beta  occ. eigenvalues --   -0.36449  -0.35518  -0.35489  -0.30211  -0.28754
  Beta  occ. eigenvalues --   -0.28551  -0.25961  -0.25781  -0.25042  -0.23796
  Beta  occ. eigenvalues --   -0.22742  -0.21387
  Beta virt. eigenvalues --   -0.08827  -0.07752  -0.04646  -0.01495  -0.00677
  Beta virt. eigenvalues --   -0.00189   0.02710   0.04354   0.06223   0.09399
  Beta virt. eigenvalues --    0.09644   0.10909   0.11282   0.12468   0.13560

 Mulliken charges and spin densities:
               1          2
     1  N   -0.417542  -0.000002
     2  N   -0.252729   0.000221
     3  N   -0.208384   0.000539
     4  C    0.136839  -0.000439
     5  C    0.271794   0.000677
     6  C   -0.368958  -0.000557
     7  S    0.068967   0.001198
     8  C   -0.122435   0.003957
     9  C   -0.381486   0.005515
    10  C    0.259136   0.057524
    11  C   -0.164406  -0.055007
    12  C   -0.072585   0.972585
    13  C   -0.125027  -0.048732
    14  C   -0.141595   0.055199
    15  C    0.201197  -0.035476
    16  N   -0.360374   0.000351
    17  C    0.133214  -0.000808
    18  O   -0.318863  -0.000972
    19  H    0.244130   0.000014
    20  H    0.256639  -0.000000
    21  H    0.243483   0.000018
    22  H    0.156240  -0.000003
    23  H    0.127171   0.003161
    24  H    0.163015   0.001161
    25  H    0.121116   0.014689
    26  H    0.114673   0.013831
    27  H    0.101225   0.012037
    28  H    0.254421  -0.000505
    29  H    0.081128  -0.000174
 Sum of Mulliken charges =  -0.00000   1.00000

 Dipole moment (field-independent basis, Debye):
    X=             -3.9210    Y=             -4.7087    Z=             -0.7129  Tot=              6.1688
 Quadrupole moment (field-independent basis, Debye-Ang):
   XX=            -65.4623   YY=           -125.2406   ZZ=           -109.0736
   XY=              7.4369   XZ=             -0.9049   YZ=             -2.8616

  Exact polarizability: 426.742 -15.859 168.289 -15.924   1.350  97.228
 Approx polarizability: 604.748 -42.298 285.972 -42.443   3.634 167.927

                      1                      2                      3
                      A                      A                      A
 Frequencies --     17.5047                19.5725                39.3190
 Red. masses --      6.7254                 5.7490                 4.4843
 Frc consts  --      0.0012                 0.0013                 0.0041
 IR Inten    --      0.1182                 1.0090                 2.3160

                      4                      5                      6
                      A                      A                      A
 Frequencies --     54.5895                60.0146                78.6712
 Red. masses --      8.5688                 5.7494                 5.0830
 Frc consts  --      0.0150                 0.0122                 0.0185
 IR Inten    --      3.6607                 1.8522                 3.6494

                      7                      8                      9
                      A                      A                      A
 Frequencies --    103.3274               108.4902               127.2823
 Red. masses --      5.2334                 4.9918                 2.5572
 Frc consts  --      0.0329                 0.0346                 0.0244
 IR Inten    --      7.9686                 8.5030                 1.1562

                     10                     11                     12
                      A                      A                      A
 Frequencies --    138.9487               165.6198               172.8444
 Red. masses --      4.4407                 3.6647                 4.5212
 Frc consts  --      0.0505                 0.0592                 0.0796
 IR Inten    --      2.1913                15.7850                 6.5469

                     13                     14                     15
                      A                      A                      A
 Frequencies --    205.7595               225.2317               267.4996
 Red. masses --      4.9410                 2.9791                 2.9339
 Frc consts  --      0.1233                 0.0890                 0.1237
 IR Inten    --      0.4099                14.8741                54.8074

                     16                     17                     18
                      A                      A                      A
 Frequencies --    281.3630               316.6665               372.4253
 Red. masses --      2.0679                 5.0642                 4.3434
 Frc consts  --      0.0965                 0.2992                 0.3549
 IR Inten    --     13.1713                 2.2752                 0.5528

                     19                     20                     21
                      A                      A                      A
 Frequencies --    390.4346               406.5126               422.8315
 Red. masses --      5.9346                 3.8084                 7.4609
 Frc consts  --      0.5330                 0.3708                 0.7859
 IR Inten    --     25.4515                 1.6246                 5.4222

                     22                     23                     24
                      A                      A                      A
 Frequencies --    460.5364               493.0777               510.9427
 Red. masses --      3.3581                 5.8486                 4.5674
 Frc consts  --      0.4196                 0.8378                 0.7025
 IR Inten    --      9.0676                31.4198                 6.2965

                     25                     26                     27
                      A                      A                      A
 Frequencies --    524.7755               544.1774               580.8154
 Red. masses --      4.3371                 7.0268                 4.7633
 Frc consts  --      0.7037                 1.2260                 0.9467
 IR Inten    --      9.5149                 5.7050                15.5168

                     28                     29                     30
                      A                      A                      A
 Frequencies --    592.7670               603.4613               638.5485
 Red. masses --      7.3167                 1.5146                 1.7069
 Frc consts  --      1.5147                 0.3250                 0.4101
 IR Inten    --      3.9832               120.7033               488.2394

                     31                     32                     33
                      A                      A                      A
 Frequencies --    657.2656               712.8732               754.7421
 Red. masses --      5.1587                 3.3189                 6.0417
 Frc consts  --      1.3130                 0.9937                 2.0277
 IR Inten    --      9.1505                 6.7032                 0.6592

                     34                     35                     36
                      A                      A                      A
 Frequencies --    787.6062               798.8016               804.0014
 Red. masses --      1.9014                 2.0869                 1.8185
 Frc consts  --      0.6949                 0.7846                 0.6926
 IR Inten    --     24.2520                 7.9861                13.2568

                     37                     38                     39
                      A                      A                      A
 Frequencies --    813.5648               821.2984               855.9045
 Red. masses --      2.1036                 1.7037                 2.2066
 Frc consts  --      0.8203                 0.6771                 0.9524
 IR Inten    --      8.4440                81.3817                42.6646

                     40                     41                     42
                      A                      A                      A
 Frequencies --    886.8751               922.9199               949.8844
 Red. masses --      3.6106                 2.6029                 1.3786
 Frc consts  --      1.6732                 1.3063                 0.7329
 IR Inten    --      7.3526                35.4645                 0.4317

                     43                     44                     45
                      A                      A                      A
 Frequencies --   1005.3306              1051.0564              1066.6436
 Red. masses --      3.3691                 1.5571                 2.3140
 Frc consts  --      2.0063                 1.0135                 1.5511
 IR Inten    --     41.1253                 1.5195                 4.4565

                     46                     47                     48
                      A                      A                      A
 Frequencies --   1076.6666              1101.6247              1104.1621
 Red. masses --      2.7104                 2.6457                 2.2722
 Frc consts  --      1.8511                 1.8917                 1.6321
 IR Inten    --     68.1461                85.2845                 6.1854

                     49                     50                     51
                      A                      A                      A
 Frequencies --   1161.3927              1185.7870              1199.9366
 Red. masses --      1.3287                 1.7913                 1.5535
 Frc consts  --      1.0559                 1.4840                 1.3179
 IR Inten    --      4.4430                 7.1489                34.8369

                     52                     53                     54
                      A                      A                      A
 Frequencies --   1213.7986              1245.7275              1259.4160
 Red. masses --      3.4479                 2.7720                 1.5198
 Frc consts  --      2.9929                 2.5345                 1.4203
 IR Inten    --     45.8753                66.4156                35.2021

                     55                     56                     57
                      A                      A                      A
 Frequencies --   1276.6577              1303.3532              1325.8395
 Red. masses --      2.0551                 3.8635                 1.1664
 Frc consts  --      1.9734                 3.8668                 1.2080
 IR Inten    --    108.9673                34.3155                46.2496

                     58                     59                     60
                      A                      A                      A
 Frequencies --   1337.8338              1368.5650              1403.3300
 Red. masses --      1.7238                 1.6866                 1.2099
 Frc consts  --      1.8178                 1.8612                 1.4039
 IR Inten    --     27.3891                12.7685                 0.5115

                     61                     62                     63
                      A                      A                      A
 Frequencies --   1414.6878              1468.4843              1478.8636
 Red. masses --      1.6132                 1.8689                 2.7764
 Frc consts  --      1.9022                 2.3745                 3.5776
 IR Inten    --     21.4480                 3.3826                53.8225

                     64                     65                     66
                      A                      A                      A
 Frequencies --   1491.0966              1566.8982              1625.3372
 Red. masses --      1.1652                 6.7077                 7.7944
 Frc consts  --      1.5263                 9.7029                12.1317
 IR Inten    --     18.5397                22.6257                 4.4547

                     67                     68                     69
                      A                      A                      A
 Frequencies --   1682.6079              1716.3545              1816.9971
 Red. masses --      1.0974                 9.5992                 7.5588
 Frc consts  --      1.8305                16.6609                14.7032
 IR Inten    --      5.9998                18.2782               495.9160

                     70                     71                     72
                      A                      A                      A
 Frequencies --   2194.1675              2949.5389              2961.2981
 Red. masses --     11.5877                 1.0805                 1.0676
 Frc consts  --     32.8690                 5.5386                 5.5159
 IR Inten    --      8.8691                51.3360                30.1806

                     73                     74                     75
                      A                      A                      A
 Frequencies --   2995.5017              3151.1474              3169.5539
 Red. masses --      1.0923                 1.0913                 1.0873
 Frc consts  --      5.7745                 6.3849                 6.4354
 IR Inten    --     34.4166                 8.7357                 7.8010

                     76                     77                     78
                      A                      A                      A
 Frequencies --   3180.7779              3193.4647              3417.0290
 Red. masses --      1.0880                 1.0929                 1.0745
 Frc consts  --      6.4854                 6.5671                 7.3918
 IR Inten    --      0.1717                 8.6660                10.1372

                     79                     80                     81
                      A                      A                      A
 Frequencies --   3460.0414              3580.1951              3583.2958
 Red. masses --      1.0517                 1.0917                 1.0750
 Frc consts  --      7.4181                 8.2443                 8.1323
 IR Inten    --      5.2888                12.1431                29.9234

 - Thermochemistry -
 -------------------
 Temperature   298.150 Kelvin.  Pressure   1.00000 Atm.
 Atom     1 has atomic number  7 and mass  14.00307

 Molecular mass:   259.06536 amu.
 Principal axes and moments of inertia in atomic units:
                           1         2         3
     Eigenvalues --  2023.10906********************
           X            1.00000   0.00149  -0.00073
           Y           -0.00149   1.00000   0.00100
           Z            0.00073  -0.00100   1.00000
 This molecule is an asymmetric top.
 Rotational symmetry number  1.
 Warning -- assumption of classical behavior for rotation
           may cause significant error
 Rotational temperatures (Kelvin)      0.04281     0.00481     0.00437
 Rotational constants (GHZ):           0.89206     0.10031     0.09111
 Zero-point vibrational energy     553118.6 (Joules/Mol)
                                  132.19852 (Kcal/Mol)
 Warning -- explicit consideration of  29 degrees of freedom as
           vibrations may cause significant error
 Vibrational temperatures:     25.19    28.16    56.57    78.54    86.35
          (Kelvin)            113.19   148.67   156.09   183.13   199.92
                              238.29   248.68   296.04   324.06   384.87
                              404.82   455.61   535.84   561.75   584.88
                              608.36   662.61   709.43   735.13   755.03
                              782.95   835.66   852.86   868.25   918.73
                              945.66  1025.67  1085.91  1133.19  1149.30
                             1156.78  1170.54  1181.67  1231.46  1276.02
                             1327.88  1366.67  1446.45  1512.24  1534.66
                             1549.08  1584.99  1588.64  1670.99  1706.08
                             1726.44  1746.39  1792.32  1812.02  1836.83
                             1875.23  1907.59  1924.84  1969.06  2019.08
                             2035.42  2112.82  2127.75  2145.36  2254.42
                             2338.50  2420.90  2469.45  2614.25  3156.92
                             4243.73  4260.65  4309.86  4533.80  4560.28
                             4576.43  4594.68  4916.34  4978.23  5151.10
                             5155.56

 Zero-point correction=                           0.210672 (Hartree/Particle)
 Thermal correction to Energy=                    0.229250
 Thermal correction to Enthalpy=                  0.230195
 Thermal correction to Gibbs Free Energy=         0.159464
 Sum of electronic and zero-point Energies=          -1155.836045
 Sum of electronic and thermal Energies=             -1155.817467
 Sum of electronic and thermal Enthalpies=           -1155.816522
 Sum of electronic and thermal Free Energies=        -1155.887253

                     E (Thermal)             CV                S
                      KCal/Mol        Cal/Mol-Kelvin    Cal/Mol-Kelvin
 Total                  143.857             66.250            148.866
 Electronic               0.000              0.000              1.377
 Translational            0.889              2.981             42.555
 Rotational               0.889              2.981             34.932
 Vibrational            142.079             60.289             70.001
 Vibration     1          0.593              1.986              6.899
 Vibration     2          0.593              1.986              6.677
 Vibration     3          0.594              1.981              5.293
 Vibration     4          0.596              1.976              4.644
 Vibration     5          0.597              1.973              4.457
 Vibration     6          0.600              1.964              3.924
 Vibration     7          0.605              1.947              3.391
 Vibration     8          0.606              1.942              3.296
 Vibration     9          0.611              1.926              2.987
 Vibration    10          0.615              1.914              2.818
 Vibration    11          0.624              1.885              2.485
 Vibration    12          0.626              1.876              2.404
 Vibration    13          0.640              1.832              2.081
 Vibration    14          0.650              1.803              1.917
 Vibration    15          0.673              1.733              1.612
 Vibration    16          0.681              1.708              1.525
 Vibration    17          0.704              1.642              1.327
 Vibration    18          0.744              1.529              1.070
 Vibration    19          0.758              1.491              0.998
 Vibration    20          0.771              1.456              0.939
 Vibration    21          0.785              1.421              0.882
 Vibration    22          0.818              1.338              0.765
 Vibration    23          0.849              1.265              0.676
 Vibration    24          0.866              1.226              0.631
 Vibration    25          0.880              1.195              0.599
 Vibration    26          0.899              1.152              0.556
 Vibration    27          0.938              1.073              0.484
 Vibration    28          0.950              1.047              0.462
 Vibration    29          0.962              1.024              0.444

                           ! Non-Optimized Parameters !
 Normal termination of Gaussian 16 at Fri May 19 18:28:19 2023.
