 Gaussian 16, Revision A.03,
 Gaussian 16:  ES64L-G16RevA.03 25-Dec-2016

 -----------------------------
 # opt freq b3lyp/6-31g(2df,p)
 -----------------------------

 -------------------
 Title Card Required
 -------------------
 Symbolic Z-matrix:
 Charge =  0 Multiplicity = 1

 SCF Done:  E(RB3LYP) =  -1321.22773226     A.U. after   16 cycles
 SCF Done:  E(RB3LYP) =  -1321.25484737     A.U. after   16 cycles
 SCF Done:  E(RB3LYP) =  -1321.26533169     A.U. after   16 cycles
 SCF Done:  E(RB3LYP) =  -1321.26940672     A.U. after   15 cycles
 SCF Done:  E(RB3LYP) =  -1321.27271215     A.U. after   16 cycles
 SCF Done:  E(RB3LYP) =  -1321.27377553     A.U. after   15 cycles
 SCF Done:  E(RB3LYP) =  -1321.27488714     A.U. after   16 cycles
 SCF Done:  E(RB3LYP) =  -1321.27600951     A.U. after   15 cycles
 SCF Done:  E(RB3LYP) =  -1321.27659655     A.U. after   15 cycles
 SCF Done:  E(RB3LYP) =  -1321.27713497     A.U. after   15 cycles
 SCF Done:  E(RB3LYP) =  -1321.27747389     A.U. after   14 cycles
 SCF Done:  E(RB3LYP) =  -1321.27795953     A.U. after   17 cycles
 SCF Done:  E(RB3LYP) =  -1321.27848532     A.U. after   15 cycles
 SCF Done:  E(RB3LYP) =  -1321.27932440     A.U. after   15 cycles
 SCF Done:  E(RB3LYP) =  -1321.27874770     A.U. after   15 cycles
 SCF Done:  E(RB3LYP) =  -1321.27968472     A.U. after   14 cycles
 SCF Done:  E(RB3LYP) =  -1321.27973446     A.U. after   11 cycles
 SCF Done:  E(RB3LYP) =  -1321.27974188     A.U. after   11 cycles
 SCF Done:  E(RB3LYP) =  -1321.27974351     A.U. after   11 cycles
 Optimization completed.
    -- Stationary point found.
 Normal termination of Gaussian 16 at Wed May 17 15:39:56 2023.

 ----------------------------------------------------------------------
 #N Geom=AllCheck Guess=TCheck SCRF=Check GenChk RB3LYP/6-31G(2df,p) Fr
 eq
 ----------------------------------------------------------------------

 Structure from the checkpoint file:  "NNNNCqCdNSrdCCdCNdS.chk"
 -------------------
 Title Card Required
 -------------------
 Charge =  0 Multiplicity = 1

                         Standard orientation:
 ---------------------------------------------------------------------
 Center     Atomic      Atomic             Coordinates (Angstroms)
 Number     Number       Type             X           Y           Z
 ---------------------------------------------------------------------
      1          7           0        3.093867   -3.387502    0.148963
      2          7           0        2.973102   -2.119788    0.800578
      3          7           0        2.930735   -1.056488   -0.142051
      4          7           0        1.680782   -1.046315   -0.784981
      5          6           0        0.679527   -0.227160   -0.317317
      6          6           0        1.008557    1.142521    0.081858
      7          7           0        2.097074    1.704650   -0.295829
      8         16           0        2.371464    3.300120    0.208065
      9          6           0       -0.623650   -0.682265   -0.327558
     10          6           0       -1.785876    0.078517   -0.087629
     11          6           0       -3.061256   -0.440803   -0.103459
     12          7           0       -4.096336    0.382107    0.156778
     13         16           0       -5.596658   -0.217961    0.142197
     14          1           0        2.621822   -4.078771    0.722259
     15          1           0        4.066421   -3.675575    0.047246
     16          1           0        3.769970   -1.918650    1.400251
     17          1           0        3.620319   -1.207305   -0.879243
     18          1           0        1.378108   -1.977599   -1.059827
     19          1           0        0.262190    1.644422    0.701827
     20          1           0        3.552083    3.427748   -0.425150
     21          1           0       -0.772568   -1.732929   -0.570966
     22          1           0       -1.717082    1.140874    0.124219
     23          1           0       -3.236539   -1.498278   -0.324382
 ---------------------------------------------------------------------

 SCF Done:  E(RB3LYP) =  -1321.27974351     A.U. after    1 cycles

 The electronic state is 1-A.
 Alpha  occ. eigenvalues --  -88.91853 -88.85143 -14.39817 -14.39555 -14.39170
 Alpha  occ. eigenvalues --  -14.37466 -14.37010 -14.35123 -10.26132 -10.24870
 Alpha  occ. eigenvalues --  -10.21340 -10.21148 -10.20660  -7.98140  -7.91378
 Alpha  occ. eigenvalues --   -5.94629  -5.94239  -5.93690  -5.87809  -5.87693
 Alpha  occ. eigenvalues --   -5.86776  -1.05809  -0.97150  -0.94622  -0.91334
 Alpha  occ. eigenvalues --   -0.86576  -0.80934  -0.76751  -0.74232  -0.70322
 Alpha  occ. eigenvalues --   -0.65501  -0.61119  -0.58579  -0.55598  -0.55019
 Alpha  occ. eigenvalues --   -0.53250  -0.53027  -0.50881  -0.49861  -0.48628
 Alpha  occ. eigenvalues --   -0.45615  -0.44101  -0.41491  -0.40658  -0.40164
 Alpha  occ. eigenvalues --   -0.38106  -0.37356  -0.35086  -0.30495  -0.29672
 Alpha  occ. eigenvalues --   -0.29145  -0.28670  -0.28030  -0.26921  -0.25452
 Alpha  occ. eigenvalues --   -0.20352  -0.17555
 Alpha virt. eigenvalues --   -0.10900  -0.04519  -0.00912   0.02711   0.04442
 Alpha virt. eigenvalues --    0.05321   0.07952   0.08145   0.08542   0.09652
 Alpha virt. eigenvalues --    0.10797   0.11007   0.12976   0.13694   0.17151

 Mulliken charges:
               1
     1  N   -0.468177
     2  N   -0.247775
     3  N   -0.216494
     4  N   -0.319547
     5  C    0.366458
     6  C   -0.033438
     7  N   -0.177162
     8  S   -0.117608
     9  C   -0.160379
    10  C   -0.087476
    11  C    0.028168
    12  N   -0.140099
    13  S   -0.246080
    14  H    0.257085
    15  H    0.234811
    16  H    0.243301
    17  H    0.233741
    18  H    0.247107
    19  H    0.126267
    20  H    0.172292
    21  H    0.094089
    22  H    0.118576
    23  H    0.092339
 Sum of Mulliken charges =  -0.00000

 Dipole moment (field-independent basis, Debye):
    X=             10.0762    Y=             -3.5367    Z=             -0.0437  Tot=             10.6790
 Quadrupole moment (field-independent basis, Debye-Ang):
   XX=           -105.1624   YY=            -75.9461   ZZ=            -90.9830
   XY=             -6.3820   XZ=              2.9807   YZ=             -1.8759

  Exact polarizability: 421.850  39.972 166.014 -12.214   6.519  78.791
 Approx polarizability: 896.807  90.768 247.212 -52.716  11.533 134.638

                      1                      2                      3
                      A                      A                      A
 Frequencies --     32.9868                49.0704                59.9684
 Red. masses --      6.1850                 7.5094                 5.2582
 Frc consts  --      0.0040                 0.0107                 0.0111
 IR Inten    --      3.0091                 0.4252                 0.0715

                      4                      5                      6
                      A                      A                      A
 Frequencies --     65.0153               102.1089               117.2237
 Red. masses --      6.8576                 3.5107                 5.6604
 Frc consts  --      0.0171                 0.0216                 0.0458
 IR Inten    --      3.8844                 6.9209                 3.7881

                      7                      8                      9
                      A                      A                      A
 Frequencies --    130.2978               141.3643               179.7876
 Red. masses --      2.6825                 2.7526                 6.0564
 Frc consts  --      0.0268                 0.0324                 0.1153
 IR Inten    --     14.4644                 1.9901                 3.3884

                     10                     11                     12
                      A                      A                      A
 Frequencies --    203.0230               245.0730               275.4540
 Red. masses --      6.4058                 3.6137                 6.8368
 Frc consts  --      0.1556                 0.1279                 0.3056
 IR Inten    --      0.9459                 8.4119                 0.2884

                     13                     14                     15
                      A                      A                      A
 Frequencies --    300.8764               325.6249               343.3991
 Red. masses --      1.6951                 1.3539                 2.4146
 Frc consts  --      0.0904                 0.0846                 0.1678
 IR Inten    --     13.9124                17.8598                16.1041

                     16                     17                     18
                      A                      A                      A
 Frequencies --    365.7566               388.8722               441.0432
 Red. masses --      4.7436                 3.4015                 4.6568
 Frc consts  --      0.3739                 0.3031                 0.5337
 IR Inten    --     12.9321                 2.7098                 7.2127

                     19                     20                     21
                      A                      A                      A
 Frequencies --    474.6725               561.4332               587.1680
 Red. masses --      2.7925                 4.0021                 2.6801
 Frc consts  --      0.3707                 0.7433                 0.5444
 IR Inten    --     28.6195                81.7318                28.6046

                     22                     23                     24
                      A                      A                      A
 Frequencies --    612.4703               671.0922               716.8844
 Red. masses --      3.3166                 4.0078                 1.7660
 Frc consts  --      0.7330                 1.0635                 0.5347
 IR Inten    --     82.9964                48.8999               139.0413

                     25                     26                     27
                      A                      A                      A
 Frequencies --    762.7596               796.2604               859.2794
 Red. masses --      2.2815                 7.3842                 2.9016
 Frc consts  --      0.7821                 2.7584                 1.2623
 IR Inten    --     39.4757                28.8312               150.1141

                     28                     29                     30
                      A                      A                      A
 Frequencies --    894.8555               931.3101               938.6198
 Red. masses --      1.5027                 3.5938                 1.8441
 Frc consts  --      0.7090                 1.8365                 0.9572
 IR Inten    --      4.1866                55.6892                10.2240

                     31                     32                     33
                      A                      A                      A
 Frequencies --    947.4082               962.7295               997.4505
 Red. masses --      4.6452                 1.5573                 1.8860
 Frc consts  --      2.4566                 0.8504                 1.1056
 IR Inten    --    133.0980                 3.8444                38.0229

                     34                     35                     36
                      A                      A                      A
 Frequencies --   1001.3954              1040.9813              1078.0142
 Red. masses --      1.1309                 1.1617                 2.0483
 Frc consts  --      0.6682                 0.7417                 1.4025
 IR Inten    --     18.5310                 0.7943                 9.8221

                     37                     38                     39
                      A                      A                      A
 Frequencies --   1139.8090              1157.3679              1228.2773
 Red. masses --      1.9188                 2.6978                 2.0628
 Frc consts  --      1.4687                 2.1292                 1.8336
 IR Inten    --     75.6125                69.1851               416.6601

                     40                     41                     42
                      A                      A                      A
 Frequencies --   1249.5729              1281.7879              1295.9021
 Red. masses --      1.4610                 2.2861                 1.3334
 Frc consts  --      1.3440                 2.2130                 1.3193
 IR Inten    --    214.4723                78.9951                11.8024

                     43                     44                     45
                      A                      A                      A
 Frequencies --   1301.1078              1328.0960              1390.6883
 Red. masses --      1.9624                 1.5542                 1.7056
 Frc consts  --      1.9574                 1.6151                 1.9435
 IR Inten    --      4.3686               210.2058               136.7495

                     46                     47                     48
                      A                      A                      A
 Frequencies --   1426.2676              1470.1231              1496.5666
 Red. masses --      2.1259                 1.1035                 1.5047
 Frc consts  --      2.5480                 1.4051                 1.9855
 IR Inten    --     87.6231                40.6558                53.2107

                     49                     50                     51
                      A                      A                      A
 Frequencies --   1539.0165              1578.0712              1613.0858
 Red. masses --      1.4615                 2.9957                 4.1293
 Frc consts  --      2.0395                 4.3955                 6.3305
 IR Inten    --     16.5616                63.2349               852.4722

                     52                     53                     54
                      A                      A                      A
 Frequencies --   1638.4014              1668.4642              2674.2859
 Red. masses --      5.4568                 1.0841                 1.0395
 Frc consts  --      8.6304                 1.7782                 4.3802
 IR Inten    --     13.2092                 4.8339                 0.2898

                     55                     56                     57
                      A                      A                      A
 Frequencies --   3071.7103              3086.8577              3138.8822
 Red. masses --      1.0878                 1.0873                 1.0871
 Frc consts  --      6.0475                 6.1043                 6.3104
 IR Inten    --     18.6436                 4.8929                13.4829

                     58                     59                     60
                      A                      A                      A
 Frequencies --   3188.8310              3422.2558              3441.3539
 Red. masses --      1.0873                 1.0729                 1.0542
 Frc consts  --      6.5143                 7.4038                 7.3557
 IR Inten    --      4.2316                 3.0833                 6.0952

                     61                     62                     63
                      A                      A                      A
 Frequencies --   3478.5603              3492.7215              3561.8331
 Red. masses --      1.0741                 1.0745                 1.0905
 Frc consts  --      7.6578                 7.7231                 8.1514
 IR Inten    --      0.8465                77.0314                 3.6141

 - Thermochemistry -
 -------------------
 Temperature   298.150 Kelvin.  Pressure   1.00000 Atm.
 Atom     1 has atomic number  7 and mass  14.00307

 Molecular mass:   218.04084 amu.
 Principal axes and moments of inertia in atomic units:
                           1         2         3
     Eigenvalues --  2718.625577778.69418**********
           X            0.99986  -0.01639   0.00126
           Y            0.01640   0.99986  -0.00188
           Z           -0.00123   0.00190   1.00000
 This molecule is an asymmetric top.
 Rotational symmetry number  1.
 Warning -- assumption of classical behavior for rotation
           may cause significant error
 Rotational temperatures (Kelvin)      0.03186     0.01113     0.00842
 Rotational constants (GHZ):           0.66384     0.23201     0.17552
 Zero-point vibrational energy     448370.1 (Joules/Mol)
                                  107.16303 (Kcal/Mol)
 Warning -- explicit consideration of  22 degrees of freedom as
           vibrations may cause significant error
 Vibrational temperatures:     47.46    70.60    86.28    93.54   146.91
          (Kelvin)            168.66   187.47   203.39   258.67   292.10
                              352.61   396.32   432.89   468.50   494.07
                              526.24   559.50   634.56   682.95   807.78
                              844.80   881.21   965.55  1031.44  1097.44
                             1145.64  1236.31  1287.50  1339.95  1350.46
                             1363.11  1385.15  1435.11  1440.78  1497.74
                             1551.02  1639.93  1665.19  1767.22  1797.86
                             1844.21  1864.51  1872.00  1910.83  2000.89
                             2052.08  2115.18  2153.23  2214.30  2270.49
                             2320.87  2357.29  2400.55  3847.70  4419.51
                             4441.30  4516.15  4588.02  4923.86  4951.34
                             5004.87  5025.25  5124.68

 Zero-point correction=                           0.170775 (Hartree/Particle)
 Thermal correction to Energy=                    0.185645
 Thermal correction to Enthalpy=                  0.186589
 Thermal correction to Gibbs Free Energy=         0.126430
 Sum of electronic and zero-point Energies=          -1321.108968
 Sum of electronic and thermal Energies=             -1321.094099
 Sum of electronic and thermal Enthalpies=           -1321.093155
 Sum of electronic and thermal Free Energies=        -1321.153313

                     E (Thermal)             CV                S
                      KCal/Mol        Cal/Mol-Kelvin    Cal/Mol-Kelvin
 Total                  116.494             51.898            126.615
 Electronic               0.000              0.000              0.000
 Translational            0.889              2.981             42.042
 Rotational               0.889              2.981             33.741
 Vibrational            114.716             45.937             50.832
 Vibration     1          0.594              1.983              5.641
 Vibration     2          0.595              1.978              4.855
 Vibration     3          0.597              1.973              4.458
 Vibration     4          0.597              1.971              4.299
 Vibration     5          0.604              1.947              3.414
 Vibration     6          0.608              1.935              3.146
 Vibration     7          0.612              1.923              2.942
 Vibration     8          0.615              1.912              2.785
 Vibration     9          0.629              1.867              2.331
 Vibration    10          0.639              1.836              2.106
 Vibration    11          0.660              1.771              1.766
 Vibration    12          0.677              1.719              1.562
 Vibration    13          0.693              1.672              1.412
 Vibration    14          0.710              1.624              1.282
 Vibration    15          0.722              1.589              1.196
 Vibration    16          0.739              1.543              1.098
 Vibration    17          0.757              1.494              1.004
 Vibration    18          0.801              1.381              0.823
 Vibration    19          0.831              1.306              0.725
 Vibration    20          0.917              1.115              0.521
 Vibration    21          0.944              1.059              0.472
 Vibration    22          0.972              1.005              0.429

                           ! Non-Optimized Parameters !
 Normal termination of Gaussian 16 at Wed May 17 16:35:50 2023.
