 Gaussian 16, Revision A.03,
 Gaussian 16:  ES64L-G16RevA.03 25-Dec-2016

 -----------------------------
 # opt freq b3lyp/6-31g(2df,p)
 -----------------------------

 -------------------
 Title Card Required
 -------------------
 Symbolic Z-matrix:
 Charge =  0 Multiplicity = 1

 SCF Done:  E(RB3LYP) =  -2295.41195841     A.U. after   23 cycles
 SCF Done:  E(RB3LYP) =  -2295.46626498     A.U. after   19 cycles
 SCF Done:  E(RB3LYP) =  -2295.51468789     A.U. after   19 cycles
 SCF Done:  E(RB3LYP) =  -2295.56557805     A.U. after   19 cycles
 SCF Done:  E(RB3LYP) =  -2295.62321403     A.U. after   16 cycles
 SCF Done:  E(RB3LYP) =  -2295.65168157     A.U. after   16 cycles
 SCF Done:  E(RB3LYP) =  -2295.68454352     A.U. after   17 cycles
 SCF Done:  E(RB3LYP) =  -2295.69593358     A.U. after   15 cycles
 SCF Done:  E(RB3LYP) =  -2295.70084624     A.U. after   17 cycles
 SCF Done:  E(RB3LYP) =  -2295.70426672     A.U. after   17 cycles
 SCF Done:  E(RB3LYP) =  -2295.72444194     A.U. after   12 cycles
 SCF Done:  E(RB3LYP) =  -2295.72447997     A.U. after   13 cycles
 SCF Done:  E(RB3LYP) =  -2295.72449263     A.U. after   10 cycles
 SCF Done:  E(RB3LYP) =  -2295.72449953     A.U. after    9 cycles
 SCF Done:  E(RB3LYP) =  -2295.72450496     A.U. after   10 cycles
 SCF Done:  E(RB3LYP) =  -2295.72451047     A.U. after   11 cycles
 SCF Done:  E(RB3LYP) =  -2295.72451365     A.U. after   10 cycles
 SCF Done:  E(RB3LYP) =  -2295.72451429     A.U. after    9 cycles
 SCF Done:  E(RB3LYP) =  -2295.72451441     A.U. after    7 cycles
 Optimization completed.
    -- Stationary point found.
 Normal termination of Gaussian 16 at Tue May 16 08:16:32 2023.

 ----------------------------------------------------------------------
 #N Geom=AllCheck Guess=TCheck SCRF=Check GenChk RB3LYP/6-31G(2df,p) Fr
 eq
 ----------------------------------------------------------------------

 Structure from the checkpoint file:  "NNSSC1[SH]dSdCCdCC1dS.chk"
 -------------------
 Title Card Required
 -------------------
 Charge =  0 Multiplicity = 1

                         Standard orientation:
 ---------------------------------------------------------------------
 Center     Atomic      Atomic             Coordinates (Angstroms)
 Number     Number       Type             X           Y           Z
 ---------------------------------------------------------------------
      1          7           0       -4.847472   -0.142639   -0.760747
      2          7           0       -3.529302    0.362659   -0.783631
      3         16           0       -2.739587    0.555592    0.696759
      4         16           0       -1.441319   -1.036237    0.846232
      5          6           0       -0.012920   -0.673207   -0.345144
      6         16           0        1.027879   -2.180525   -0.327474
      7         16           0        3.563572    0.088413   -1.165793
      8          6           0        3.829760    0.391718    0.416271
      9          6           0        2.850183    0.504249    1.473744
     10          6           0        1.508765    0.547096    1.345552
     11          6           0        0.680645    0.566845    0.116353
     12         16           0        0.263011    2.024805   -0.505538
     13          1           0       -4.968099   -0.755547   -1.560811
     14          1           0       -5.531611    0.607578   -0.819053
     15          1           0       -3.347503    1.139753   -1.409524
     16          1           0       -0.454448   -0.511208   -1.326020
     17          1           0       -0.012136   -3.039528   -0.310874
     18          1           0        4.860431    0.526003    0.752575
     19          1           0        3.252837    0.594078    2.479599
     20          1           0        0.922473    0.645737    2.257127
 ---------------------------------------------------------------------

 SCF Done:  E(RB3LYP) =  -2295.72451441     A.U. after    1 cycles

 The electronic state is 1-A.
 Alpha  occ. eigenvalues --  -88.92610 -88.90419 -88.88755 -88.86504 -88.86194
 Alpha  occ. eigenvalues --  -14.38490 -14.36169 -10.27444 -10.26552 -10.25459
 Alpha  occ. eigenvalues --  -10.23354 -10.21479  -7.98390  -7.96685  -7.95268
 Alpha  occ. eigenvalues --   -7.92986  -7.92711  -5.94923  -5.94573  -5.93894
 Alpha  occ. eigenvalues --   -5.93160  -5.92814  -5.92199  -5.91735  -5.91394
 Alpha  occ. eigenvalues --   -5.90765  -5.89289  -5.89248  -5.89023  -5.88965
 Alpha  occ. eigenvalues --   -5.88531  -5.88244  -0.98844  -0.87423  -0.83584
 Alpha  occ. eigenvalues --   -0.81939  -0.78427  -0.74678  -0.73941  -0.66705
 Alpha  occ. eigenvalues --   -0.65674  -0.61752  -0.57639  -0.53992  -0.52110
 Alpha  occ. eigenvalues --   -0.51273  -0.49214  -0.46871  -0.45554  -0.43880
 Alpha  occ. eigenvalues --   -0.43115  -0.41273  -0.38627  -0.37088  -0.36804
 Alpha  occ. eigenvalues --   -0.35391  -0.33922  -0.29776  -0.28031  -0.27400
 Alpha  occ. eigenvalues --   -0.27063  -0.26158  -0.25516  -0.24557  -0.22655
 Alpha  occ. eigenvalues --   -0.22045
 Alpha virt. eigenvalues --   -0.10380  -0.08960  -0.02250  -0.00037   0.01257
 Alpha virt. eigenvalues --    0.03078   0.04507   0.06302   0.06751   0.08657
 Alpha virt. eigenvalues --    0.09311   0.10343   0.10926   0.13406   0.14167

 Mulliken charges:
               1
     1  N   -0.447836
     2  N   -0.256227
     3  S    0.014616
     4  S   -0.068982
     5  C   -0.089074
     6  S   -0.216665
     7  S   -0.234741
     8  C   -0.008679
     9  C   -0.067306
    10  C   -0.055793
    11  C    0.218868
    12  S   -0.278983
    13  H    0.253344
    14  H    0.243232
    15  H    0.259737
    16  H    0.167941
    17  H    0.164181
    18  H    0.134290
    19  H    0.111443
    20  H    0.156633
 Sum of Mulliken charges =  -0.00000

 Dipole moment (field-independent basis, Debye):
    X=             -2.7221    Y=              0.2618    Z=              0.0935  Tot=              2.7363
 Quadrupole moment (field-independent basis, Debye-Ang):
   XX=            -92.3471   YY=           -107.3621   ZZ=           -101.8312
   XY=             -3.4862   XZ=             20.3451   YZ=              1.6850

  Exact polarizability: 244.636 -14.085 148.533  -2.007  -1.297 137.507
 Approx polarizability: 368.762 -49.917 293.908 -19.808 -12.741 280.276

                      1                      2                      3
                      A                      A                      A
 Frequencies --     26.6905                30.8742                43.5941
 Red. masses --      6.8131                 7.4409                 6.4953
 Frc consts  --      0.0029                 0.0042                 0.0073
 IR Inten    --      2.1347                 1.0658                 0.6664

                      4                      5                      6
                      A                      A                      A
 Frequencies --     61.7742                87.1198                97.7890
 Red. masses --      7.3903                 5.2061                14.4690
 Frc consts  --      0.0166                 0.0233                 0.0815
 IR Inten    --      0.0850                 4.7229                 1.4912

                      7                      8                      9
                      A                      A                      A
 Frequencies --    103.7926               112.5791               163.9899
 Red. masses --      5.8885                11.1516                 3.5664
 Frc consts  --      0.0374                 0.0833                 0.0565
 IR Inten    --      0.3367                 3.7369                 4.8469

                     10                     11                     12
                      A                      A                      A
 Frequencies --    172.5359               206.0930               218.1519
 Red. masses --      5.0203                 6.2938                 1.7789
 Frc consts  --      0.0881                 0.1575                 0.0499
 IR Inten    --      8.7979                11.2588                 5.7602

                     13                     14                     15
                      A                      A                      A
 Frequencies --    227.9949               256.7335               285.0120
 Red. masses --      1.1669                 5.1595                 5.8599
 Frc consts  --      0.0357                 0.2004                 0.2805
 IR Inten    --     60.8989                26.3004                 3.2413

                     16                     17                     18
                      A                      A                      A
 Frequencies --    303.8207               340.6655               419.3289
 Red. masses --      7.1344                10.8375                 2.1298
 Frc consts  --      0.3880                 0.7410                 0.2207
 IR Inten    --      3.2751                 1.8225                14.0883

                     19                     20                     21
                      A                      A                      A
 Frequencies --    450.5216               458.3802               492.0653
 Red. masses --      3.1726                 2.3318                 5.0679
 Frc consts  --      0.3794                 0.2887                 0.7230
 IR Inten    --      9.6899                13.4170                 6.4103

                     22                     23                     24
                      A                      A                      A
 Frequencies --    526.8996               623.6088               660.7915
 Red. masses --      8.4643                 5.9946                 3.9493
 Frc consts  --      1.3845                 1.3735                 1.0160
 IR Inten    --      3.8723                 2.2560                 1.4509

                     25                     26                     27
                      A                      A                      A
 Frequencies --    745.3424               770.1603               783.2122
 Red. masses --      1.9496                 1.8517                 5.1775
 Frc consts  --      0.6381                 0.6471                 1.8712
 IR Inten    --     13.1566                48.9334                29.8317

                     28                     29                     30
                      A                      A                      A
 Frequencies --    823.7809               885.9977               895.1177
 Red. masses --      4.0303                 4.5154                 2.4797
 Frc consts  --      1.6114                 2.0884                 1.1706
 IR Inten    --     18.0951                 6.8274                47.6848

                     31                     32                     33
                      A                      A                      A
 Frequencies --    914.0568               951.8955              1000.9680
 Red. masses --      1.5318                 1.3381                 1.3373
 Frc consts  --      0.7541                 0.7144                 0.7895
 IR Inten    --      3.6475                 4.1504                 2.2597

                     34                     35                     36
                      A                      A                      A
 Frequencies --   1108.2023              1136.2258              1145.6985
 Red. masses --      2.7581                 1.6332                 1.5321
 Frc consts  --      1.9957                 1.2422                 1.1849
 IR Inten    --     38.4422                49.3616                 4.7822

                     37                     38                     39
                      A                      A                      A
 Frequencies --   1153.0797              1193.4165              1249.8389
 Red. masses --      2.3670                 3.0341                 1.0977
 Frc consts  --      1.8542                 2.5460                 1.0103
 IR Inten    --     25.1419                96.1565                 2.9418

                     40                     41                     42
                      A                      A                      A
 Frequencies --   1292.8905              1309.4071              1391.2001
 Red. masses --      1.4464                 1.1382                 1.8133
 Frc consts  --      1.4245                 1.1498                 2.0677
 IR Inten    --      7.9040                 0.9472                27.4944

                     43                     44                     45
                      A                      A                      A
 Frequencies --   1419.3441              1425.2844              1634.1404
 Red. masses --      1.1350                 1.5692                 6.7665
 Frc consts  --      1.3472                 1.8782                10.6462
 IR Inten    --      5.0719                10.0184                63.7844

                     46                     47                     48
                      A                      A                      A
 Frequencies --   1676.8150              2649.9888              3092.0670
 Red. masses --      1.0779                 1.0380                 1.0857
 Frc consts  --      1.7856                 4.2949                 6.1157
 IR Inten    --      3.1964                 5.1650                22.2976

                     49                     50                     51
                      A                      A                      A
 Frequencies --   3134.5438              3146.6090              3167.2199
 Red. masses --      1.0867                 1.0825                 1.0930
 Frc consts  --      6.2909                 6.3147                 6.4599
 IR Inten    --      0.8343                 8.2235                 7.9438

                     52                     53                     54
                      A                      A                      A
 Frequencies --   3461.9300              3515.3403              3558.3029
 Red. masses --      1.0463                 1.0758                 1.0969
 Frc consts  --      7.3880                 7.8330                 8.1828
 IR Inten    --      6.9162                11.2182                 2.3484

 - Thermochemistry -
 -------------------
 Temperature   298.150 Kelvin.  Pressure   1.00000 Atm.
 Atom     1 has atomic number  7 and mass  14.00307

 Molecular mass:   255.92911 amu.
 Principal axes and moments of inertia in atomic units:
                           1         2         3
     Eigenvalues --  1929.179166574.715687219.72175
           X            0.99978   0.00093   0.02091
           Y           -0.00139   0.99975   0.02219
           Z           -0.02088  -0.02221   0.99954
 This molecule is an asymmetric top.
 Rotational symmetry number  1.
 Warning -- assumption of classical behavior for rotation
           may cause significant error
 Rotational temperatures (Kelvin)      0.04490     0.01317     0.01200
 Rotational constants (GHZ):           0.93550     0.27450     0.24997
 Zero-point vibrational energy     340953.0 (Joules/Mol)
                                   81.48971 (Kcal/Mol)
 Warning -- explicit consideration of  22 degrees of freedom as
           vibrations may cause significant error
 Vibrational temperatures:     38.40    44.42    62.72    88.88   125.35
          (Kelvin)            140.70   149.33   161.98   235.94   248.24
                              296.52   313.87   328.03   369.38   410.07
                              437.13   490.14   603.32   648.20   659.51
                              707.97   758.09   897.23   950.73  1072.38
                             1108.09  1126.87  1185.24  1274.75  1287.87
                             1315.12  1369.57  1440.17  1594.46  1634.78
                             1648.40  1659.02  1717.06  1798.24  1860.18
                             1883.94  2001.63  2042.12  2050.67  2351.16
                             2412.56  3812.74  4448.79  4509.91  4527.27
                             4556.92  4980.95  5057.79  5119.60

 Zero-point correction=                           0.129862 (Hartree/Particle)
 Thermal correction to Energy=                    0.145852
 Thermal correction to Enthalpy=                  0.146797
 Thermal correction to Gibbs Free Energy=         0.083301
 Sum of electronic and zero-point Energies=          -2295.594652
 Sum of electronic and thermal Energies=             -2295.578662
 Sum of electronic and thermal Enthalpies=           -2295.577718
 Sum of electronic and thermal Free Energies=        -2295.641213

                     E (Thermal)             CV                S
                      KCal/Mol        Cal/Mol-Kelvin    Cal/Mol-Kelvin
 Total                   91.524             53.202            133.638
 Electronic               0.000              0.000              0.000
 Translational            0.889              2.981             42.519
 Rotational               0.889              2.981             32.882
 Vibrational             89.746             47.240             58.237
 Vibration     1          0.593              1.984              6.061
 Vibration     2          0.594              1.984              5.772
 Vibration     3          0.595              1.980              5.089
 Vibration     4          0.597              1.973              4.400
 Vibration     5          0.601              1.958              3.724
 Vibration     6          0.603              1.951              3.498
 Vibration     7          0.605              1.946              3.382
 Vibration     8          0.607              1.939              3.224
 Vibration     9          0.623              1.887              2.503
 Vibration    10          0.626              1.876              2.408
 Vibration    11          0.641              1.831              2.078
 Vibration    12          0.646              1.813              1.974
 Vibration    13          0.651              1.798              1.895
 Vibration    14          0.666              1.751              1.684
 Vibration    15          0.683              1.701              1.503
 Vibration    16          0.695              1.666              1.396
 Vibration    17          0.720              1.594              1.209
 Vibration    18          0.782              1.428              0.894
 Vibration    19          0.809              1.360              0.794
 Vibration    20          0.816              1.342              0.771
 Vibration    21          0.848              1.268              0.678
 Vibration    22          0.882              1.190              0.594

                           ! Non-Optimized Parameters !
 Normal termination of Gaussian 16 at Tue May 16 09:05:39 2023.
