 Gaussian 16, Revision A.03,
 Gaussian 16:  ES64L-G16RevA.03 25-Dec-2016

 -----------------------------
 # opt freq b3lyp/6-31g(2df,p)
 -----------------------------

 -------------------
 Title Card Required
 -------------------
 Symbolic Z-matrix:
 Charge =  0 Multiplicity = 1

 SCF Done:  E(RB3LYP) =  -681.007241173     A.U. after   19 cycles
 SCF Done:  E(RB3LYP) =  -681.046933754     A.U. after   15 cycles
 SCF Done:  E(RB3LYP) =  -681.069585654     A.U. after   15 cycles
 SCF Done:  E(RB3LYP) =  -681.082983462     A.U. after   15 cycles
 SCF Done:  E(RB3LYP) =  -681.096384740     A.U. after   15 cycles
 SCF Done:  E(RB3LYP) =  -681.103083121     A.U. after   15 cycles
 SCF Done:  E(RB3LYP) =  -681.106358625     A.U. after   14 cycles
 SCF Done:  E(RB3LYP) =  -681.107434486     A.U. after   14 cycles
 SCF Done:  E(RB3LYP) =  -681.107494754     A.U. after   14 cycles
 SCF Done:  E(RB3LYP) =  -681.107964589     A.U. after   12 cycles
 SCF Done:  E(RB3LYP) =  -681.108048246     A.U. after   12 cycles
 SCF Done:  E(RB3LYP) =  -681.108067048     A.U. after   11 cycles
 SCF Done:  E(RB3LYP) =  -681.108074379     A.U. after   10 cycles
 SCF Done:  E(RB3LYP) =  -681.108077484     A.U. after    9 cycles
 SCF Done:  E(RB3LYP) =  -681.108078309     A.U. after    8 cycles
 SCF Done:  E(RB3LYP) =  -681.108078638     A.U. after    7 cycles
 SCF Done:  E(RB3LYP) =  -681.108078789     A.U. after    7 cycles
 Optimization completed.
    -- Stationary point found.
 Normal termination of Gaussian 16 at Wed May 17 14:29:29 2023.

 ----------------------------------------------------------------------
 #N Geom=AllCheck Guess=TCheck SCRF=Check GenChk RB3LYP/6-31G(2df,p) Fr
 eq
 ----------------------------------------------------------------------

 Structure from the checkpoint file:  "NOC1CdNC2dCCdCC2dCCdCNdN1.chk"
 -------------------
 Title Card Required
 -------------------
 Charge =  0 Multiplicity = 1

                         Standard orientation:
 ---------------------------------------------------------------------
 Center     Atomic      Atomic             Coordinates (Angstroms)
 Number     Number       Type             X           Y           Z
 ---------------------------------------------------------------------
      1          7           0        4.001455   -1.569402    0.086279
      2          8           0        2.780036   -1.238936   -0.611938
      3          6           0        1.947064   -0.487180    0.233822
      4          6           0        0.532604   -0.672476   -0.250980
      5          7           0       -0.371165   -1.029876    0.569820
      6          6           0       -1.716666   -0.861248    0.240454
      7          6           0       -2.711851   -1.772159    0.112820
      8          6           0       -3.954772   -1.063264   -0.217706
      9          6           0       -3.724272    0.268008   -0.286183
     10          6           0       -2.308374    0.495748    0.017662
     11          6           0       -1.661469    1.681429    0.070560
     12          6           0       -0.246262    1.769765    0.457421
     13          6           0        0.746384    2.169902   -0.341936
     14          7           0        2.120334    1.990714   -0.041989
     15          7           0        2.616838    0.894332    0.250812
     16          1           0        4.647220   -0.820429   -0.168760
     17          1           0        4.310910   -2.394074   -0.426304
     18          1           0        2.022326   -0.830825    1.270652
     19          1           0        0.329603   -0.443015   -1.303639
     20          1           0       -2.607660   -2.844437    0.200005
     21          1           0       -4.905914   -1.556139   -0.372585
     22          1           0       -4.440693    1.055723   -0.471110
     23          1           0       -2.194195    2.586219   -0.216157
     24          1           0        0.028620    1.309115    1.401958
     25          1           0        0.582956    2.677820   -1.288618
 ---------------------------------------------------------------------

 SCF Done:  E(RB3LYP) =  -681.108078789     A.U. after    1 cycles

 The electronic state is 1-A.
 Alpha  occ. eigenvalues --  -19.18280 -14.39740 -14.39399 -14.37292 -14.33878
 Alpha  occ. eigenvalues --  -10.27177 -10.24539 -10.23221 -10.22051 -10.21585
 Alpha  occ. eigenvalues --  -10.21282 -10.20555 -10.18539 -10.17670 -10.17489
 Alpha  occ. eigenvalues --   -1.08359  -1.03647  -0.94527  -0.86242  -0.84099
 Alpha  occ. eigenvalues --   -0.82634  -0.76980  -0.73490  -0.70788  -0.66346
 Alpha  occ. eigenvalues --   -0.63885  -0.59988  -0.56117  -0.55249  -0.54553
 Alpha  occ. eigenvalues --   -0.52748  -0.51512  -0.50197  -0.48713  -0.47795
 Alpha  occ. eigenvalues --   -0.46115  -0.42971  -0.42146  -0.41388  -0.40698
 Alpha  occ. eigenvalues --   -0.38323  -0.37840  -0.37411  -0.37096  -0.35803
 Alpha  occ. eigenvalues --   -0.32918  -0.31814  -0.29818  -0.27291  -0.25873
 Alpha  occ. eigenvalues --   -0.25126  -0.21713  -0.19565
 Alpha virt. eigenvalues --   -0.08188  -0.06080  -0.02709   0.00984   0.07650
 Alpha virt. eigenvalues --    0.08526   0.09177   0.09792   0.11406   0.12491
 Alpha virt. eigenvalues --    0.12820   0.14140   0.14172   0.15250   0.16718

 Mulliken charges:
               1
     1  N   -0.373157
     2  O   -0.264360
     3  C    0.143535
     4  C   -0.071077
     5  N   -0.236259
     6  C    0.233485
     7  C   -0.237336
     8  C   -0.097830
     9  C   -0.205148
    10  C    0.285382
    11  C   -0.244680
    12  C   -0.112517
    13  C   -0.026237
    14  N   -0.102588
    15  N   -0.140565
    16  H    0.262324
    17  H    0.258409
    18  H    0.125330
    19  H    0.112122
    20  H    0.103469
    21  H    0.101983
    22  H    0.098578
    23  H    0.118472
    24  H    0.142992
    25  H    0.125671
 Sum of Mulliken charges =  -0.00000

 Dipole moment (field-independent basis, Debye):
    X=             -0.3678    Y=              0.3273    Z=             -1.7316  Tot=              1.8002
 Quadrupole moment (field-independent basis, Debye-Ang):
   XX=            -79.3440   YY=            -82.0027   ZZ=            -86.8178
   XY=             -7.9820   XZ=             -2.5896   YZ=              0.4646

  Exact polarizability: 214.711  16.434 148.928   2.196  -6.294  76.002
 Approx polarizability: 321.836  51.366 279.463  -2.817 -15.947 138.649

                      1                      2                      3
                      A                      A                      A
 Frequencies --     45.3470                91.2055                96.1126
 Red. masses --      5.3131                 4.7957                 3.6699
 Frc consts  --      0.0064                 0.0235                 0.0200
 IR Inten    --      1.7704                 0.8734                 7.3440

                      4                      5                      6
                      A                      A                      A
 Frequencies --    134.7961               159.8646               169.6190
 Red. masses --      4.3032                 4.9644                 1.3899
 Frc consts  --      0.0461                 0.0748                 0.0236
 IR Inten    --      5.8369                 2.3771                22.8880

                      7                      8                      9
                      A                      A                      A
 Frequencies --    195.4706               222.9983               255.8986
 Red. masses --      2.9510                 3.8655                 3.8741
 Frc consts  --      0.0664                 0.1133                 0.1495
 IR Inten    --      7.2595                12.8467                 2.0797

                     10                     11                     12
                      A                      A                      A
 Frequencies --    304.8276               326.7793               350.6620
 Red. masses --      5.4295                 3.9386                 3.5117
 Frc consts  --      0.2972                 0.2478                 0.2544
 IR Inten    --     10.7038                 1.2360                 8.2966

                     13                     14                     15
                      A                      A                      A
 Frequencies --    372.4321               387.4021               430.5608
 Red. masses --      4.1558                 4.0928                 5.2449
 Frc consts  --      0.3396                 0.3619                 0.5729
 IR Inten    --      7.2469                 8.5393                 5.4693

                     16                     17                     18
                      A                      A                      A
 Frequencies --    486.7173               501.8128               551.9979
 Red. masses --      5.1759                 4.4021                 4.1004
 Frc consts  --      0.7224                 0.6531                 0.7361
 IR Inten    --      1.3335                 1.9373                16.7060

                     19                     20                     21
                      A                      A                      A
 Frequencies --    564.3068               631.6065               672.5157
 Red. masses --      3.6787                 4.8083                 8.0105
 Frc consts  --      0.6902                 1.1302                 2.1346
 IR Inten    --     10.1585                21.2246                15.0334

                     22                     23                     24
                      A                      A                      A
 Frequencies --    691.4549               704.2827               773.6690
 Red. masses --      1.6389                 4.0554                 2.4195
 Frc consts  --      0.4617                 1.1852                 0.8533
 IR Inten    --     17.0350                18.3583                18.1970

                     25                     26                     27
                      A                      A                      A
 Frequencies --    781.1451               809.4196               818.6333
 Red. masses --      3.7025                 5.1145                 4.3544
 Frc consts  --      1.3311                 1.9742                 1.7193
 IR Inten    --      8.7753                10.3142                10.4303

                     28                     29                     30
                      A                      A                      A
 Frequencies --    859.9747               882.7812               907.5945
 Red. masses --      1.6062                 1.8647                 2.2963
 Frc consts  --      0.6999                 0.8562                 1.1144
 IR Inten    --     23.0487                14.0215                 2.2082

                     31                     32                     33
                      A                      A                      A
 Frequencies --    922.4973               935.1504               972.6068
 Red. masses --      1.3414                 5.6706                 2.5219
 Frc consts  --      0.6726                 2.9217                 1.4056
 IR Inten    --      0.2401                 4.9578                10.3257

                     34                     35                     36
                      A                      A                      A
 Frequencies --    990.1701              1002.4731              1018.0088
 Red. masses --      2.0007                 1.5367                 1.5286
 Frc consts  --      1.1557                 0.9099                 0.9334
 IR Inten    --      3.8415                25.7616                16.7732

                     37                     38                     39
                      A                      A                      A
 Frequencies --   1055.9378              1094.6460              1114.0196
 Red. masses --      3.3285                 1.5460                 3.3290
 Frc consts  --      2.1866                 1.0915                 2.4342
 IR Inten    --    117.0351                 5.8061                 9.9003

                     40                     41                     42
                      A                      A                      A
 Frequencies --   1134.6990              1136.3758              1208.6056
 Red. masses --      2.2477                 2.6300                 2.5149
 Frc consts  --      1.7051                 2.0010                 2.1644
 IR Inten    --      8.5027                11.9036                 1.7503

                     43                     44                     45
                      A                      A                      A
 Frequencies --   1241.1721              1259.2088              1283.8240
 Red. masses --      1.4726                 1.3814                 1.3310
 Frc consts  --      1.3366                 1.2905                 1.2925
 IR Inten    --    100.0418                 2.0527                 4.6664

                     46                     47                     48
                      A                      A                      A
 Frequencies --   1286.5921              1309.1168              1323.8134
 Red. masses --      1.5647                 1.1919                 1.2971
 Frc consts  --      1.5261                 1.2035                 1.3393
 IR Inten    --      9.7004                28.5992                 9.8517

                     49                     50                     51
                      A                      A                      A
 Frequencies --   1337.3311              1353.8889              1373.9333
 Red. masses --      1.7541                 1.1818                 1.7692
 Frc consts  --      1.8483                 1.2763                 1.9677
 IR Inten    --     16.0741                 4.3460                14.4727

                     52                     53                     54
                      A                      A                      A
 Frequencies --   1381.2299              1548.5134              1624.1530
 Red. masses --      1.5630                 6.5911                 6.7282
 Frc consts  --      1.7569                 9.3118                10.4569
 IR Inten    --      4.5151                54.0737                36.9492

                     55                     56                     57
                      A                      A                      A
 Frequencies --   1630.6562              1635.6283              1651.6640
 Red. masses --      3.4770                 1.3427                 7.4325
 Frc consts  --      5.4472                 2.1163                11.9462
 IR Inten    --     43.3294                10.2702                 2.2320

                     58                     59                     60
                      A                      A                      A
 Frequencies --   1679.9236              1708.6742              3043.6044
 Red. masses --      6.7827                 8.8829                 1.0878
 Frc consts  --     11.2781                15.2800                 5.9372
 IR Inten    --     39.8895                49.9577                19.4266

                     61                     62                     63
                      A                      A                      A
 Frequencies --   3067.5808              3143.2013              3160.5529
 Red. masses --      1.0839                 1.0882                 1.0885
 Frc consts  --      6.0092                 6.3341                 6.4064
 IR Inten    --     10.9160                10.5374                 3.1742

                     64                     65                     66
                      A                      A                      A
 Frequencies --   3172.2448              3211.5729              3232.7113
 Red. masses --      1.0881                 1.0871                 1.0944
 Frc consts  --      6.4512                 6.6060                 6.7386
 IR Inten    --      2.8723                 6.8596                 8.6397

                     67                     68                     69
                      A                      A                      A
 Frequencies --   3240.8535              3430.1385              3528.2621
 Red. masses --      1.1037                 1.0491                 1.0937
 Frc consts  --      6.8299                 7.2726                 8.0218
 IR Inten    --      9.7665                 0.4383                 2.0527

 - Thermochemistry -
 -------------------
 Temperature   298.150 Kelvin.  Pressure   1.00000 Atm.
 Atom     1 has atomic number  7 and mass  14.00307

 Molecular mass:   202.08546 amu.
 Principal axes and moments of inertia in atomic units:
                           1         2         3
     Eigenvalues --  1437.219504526.966325771.60206
           X            0.99994  -0.01108   0.00224
           Y            0.01109   0.99992  -0.00566
           Z           -0.00218   0.00568   0.99998
 This molecule is an asymmetric top.
 Rotational symmetry number  1.
 Warning -- assumption of classical behavior for rotation
           may cause significant error
 Rotational temperatures (Kelvin)      0.06026     0.01913     0.01501
 Rotational constants (GHZ):           1.25572     0.39866     0.31269
 Zero-point vibrational energy     500201.3 (Joules/Mol)
                                  119.55098 (Kcal/Mol)
 Warning -- explicit consideration of  19 degrees of freedom as
           vibrations may cause significant error
 Vibrational temperatures:     65.24   131.22   138.28   193.94   230.01
          (Kelvin)            244.04   281.24   320.84   368.18   438.58
                              470.16   504.52   535.85   557.39   619.48
                              700.28   722.00   794.20   811.91   908.74
                              967.60   994.85  1013.31  1113.14  1123.89
                             1164.57  1177.83  1237.31  1270.13  1305.83
                             1327.27  1345.47  1399.36  1424.63  1442.34
                             1464.69  1519.26  1574.95  1602.83  1632.58
                             1634.99  1738.91  1785.77  1811.72  1847.14
                             1851.12  1883.53  1904.67  1924.12  1947.94
                             1976.78  1987.28  2227.97  2336.79  2346.15
                             2353.30  2376.38  2417.04  2458.40  4379.07
                             4413.56  4522.37  4547.33  4564.15  4620.74
                             4651.15  4662.87  4935.20  5076.38

 Zero-point correction=                           0.190517 (Hartree/Particle)
 Thermal correction to Energy=                    0.203592
 Thermal correction to Enthalpy=                  0.204536
 Thermal correction to Gibbs Free Energy=         0.150963
 Sum of electronic and zero-point Energies=           -680.917562
 Sum of electronic and thermal Energies=              -680.904487
 Sum of electronic and thermal Enthalpies=            -680.903542
 Sum of electronic and thermal Free Energies=         -680.957116

                     E (Thermal)             CV                S
                      KCal/Mol        Cal/Mol-Kelvin    Cal/Mol-Kelvin
 Total                  127.756             50.495            112.755
 Electronic               0.000              0.000              0.000
 Translational            0.889              2.981             41.815
 Rotational               0.889              2.981             31.996
 Vibrational            125.979             44.533             38.944
 Vibration     1          0.595              1.979              5.011
 Vibration     2          0.602              1.955              3.634
 Vibration     3          0.603              1.952              3.532
 Vibration     4          0.613              1.919              2.876
 Vibration     5          0.622              1.892              2.551
 Vibration     6          0.625              1.880              2.440
 Vibration     7          0.636              1.846              2.175
 Vibration     8          0.649              1.806              1.935
 Vibration     9          0.666              1.753              1.690
 Vibration    10          0.696              1.665              1.390
 Vibration    11          0.710              1.622              1.276
 Vibration    12          0.728              1.574              1.163
 Vibration    13          0.744              1.529              1.070
 Vibration    14          0.756              1.497              1.010
 Vibration    15          0.792              1.404              0.857
 Vibration    16          0.843              1.279              0.692
 Vibration    17          0.857              1.246              0.654
 Vibration    18          0.907              1.135              0.540
 Vibration    19          0.920              1.108              0.515

 Optimization completed.
    -- Stationary point found.
 Normal termination of Gaussian 16 at Wed May 17 16:07:23 2023.
