 Gaussian 16, Revision A.03,
 Gaussian 16:  ES64L-G16RevA.03 25-Dec-2016

 -----------------------------
 # opt freq b3lyp/6-31g(2df,p)
 -----------------------------

 -------------------
 Title Card Required
 -------------------
 Symbolic Z-matrix:
 Charge =  0 Multiplicity = 1

 SCF Done:  E(RB3LYP) =  -669.091854600     A.U. after   30 cycles
 SCF Done:  E(RB3LYP) =  -669.057927240     A.U. after   28 cycles
 SCF Done:  E(RB3LYP) =  -669.251839169     A.U. after   21 cycles
 SCF Done:  E(RB3LYP) =  -669.257686996     A.U. after   21 cycles
 SCF Done:  E(RB3LYP) =  -669.319333392     A.U. after   17 cycles
 SCF Done:  E(RB3LYP) =  -669.397230887     A.U. after   17 cycles
 SCF Done:  E(RB3LYP) =  -669.481538514     A.U. after   16 cycles
 SCF Done:  E(RB3LYP) =  -669.580726288     A.U. after   16 cycles
 SCF Done:  E(RB3LYP) =  -669.618824072     A.U. after   17 cycles
 SCF Done:  E(RB3LYP) =  -669.622016189     A.U. after   16 cycles
 SCF Done:  E(RB3LYP) =  -669.777355941     A.U. after    9 cycles
 SCF Done:  E(RB3LYP) =  -669.777362662     A.U. after    9 cycles
 SCF Done:  E(RB3LYP) =  -669.777370147     A.U. after    8 cycles
 SCF Done:  E(RB3LYP) =  -669.777381424     A.U. after    8 cycles
 SCF Done:  E(RB3LYP) =  -669.777394752     A.U. after    9 cycles
 SCF Done:  E(RB3LYP) =  -669.777404593     A.U. after    9 cycles
 SCF Done:  E(RB3LYP) =  -669.777412319     A.U. after    9 cycles
 SCF Done:  E(RB3LYP) =  -669.777414722     A.U. after    8 cycles
 SCF Done:  E(RB3LYP) =  -669.777415137     A.U. after    7 cycles
 Optimization completed.
    -- Stationary point found.
 Normal termination of Gaussian 16 at Wed May 17 22:07:37 2023.

 ----------------------------------------------------------------------
 #N Geom=AllCheck Guess=TCheck SCRF=Check GenChk RB3LYP/6-31G(2df,p) Fr
 eq
 ----------------------------------------------------------------------

 Structure from the checkpoint file:  "NOc1cccc2cc3ccccc3c-2c1.chk"
 -------------------
 Title Card Required
 -------------------
 Charge =  0 Multiplicity = 1

                         Standard orientation:
 ---------------------------------------------------------------------
 Center     Atomic      Atomic             Coordinates (Angstroms)
 Number     Number       Type             X           Y           Z
 ---------------------------------------------------------------------
      1          7           0       -3.552889   -1.985694    0.933115
      2          8           0       -3.619656   -1.009512   -0.127541
      3          6           0       -2.578694   -0.102829   -0.075261
      4          6           0       -2.904651    1.174912   -0.414640
      5          6           0       -1.762914    2.095134   -0.281169
      6          6           0       -0.636120    1.778573   -0.955161
      7          6           0        0.453996    1.263436   -0.076018
      8          6           0        1.631655    1.791837    0.743229
      9          6           0        2.335501    0.649792    0.647965
     10          6           0        3.602408    0.033650    0.929717
     11          6           0        3.938120   -1.033253    0.164612
     12          6           0        3.080002   -1.540266   -0.913420
     13          6           0        1.832935   -1.076991   -1.141647
     14          6           0        1.306806   -0.106637   -0.180289
     15          6           0       -0.061081   -0.052187    0.387852
     16          6           0       -1.240002   -0.685448    0.199907
     17          1           0       -3.961692   -2.807118    0.489793
     18          1           0       -4.253853   -1.663145    1.603595
     19          1           0       -3.941672    1.434824   -0.599540
     20          1           0       -1.645236    2.551228    0.705443
     21          1           0       -0.731777    1.268514   -1.911302
     22          1           0        1.731119    2.704238    1.315130
     23          1           0        4.284269    0.441685    1.668741
     24          1           0        4.898641   -1.518651    0.305610
     25          1           0        3.488740   -2.323639   -1.544561
     26          1           0        1.202853   -1.480513   -1.927268
     27          1           0       -1.231683   -1.769808    0.168825
 ---------------------------------------------------------------------

 SCF Done:  E(RB3LYP) =  -669.777415137     A.U. after    1 cycles

 The electronic state is 1-A.
 Alpha  occ. eigenvalues --  -19.18107 -14.37513 -10.23948 -10.22090 -10.21827
 Alpha  occ. eigenvalues --  -10.20009 -10.19737 -10.19633 -10.19532 -10.19496
 Alpha  occ. eigenvalues --  -10.19488 -10.19159 -10.18136 -10.18124 -10.17703
 Alpha  occ. eigenvalues --  -10.17299  -1.07698  -0.92030  -0.84992  -0.82953
 Alpha  occ. eigenvalues --   -0.79818  -0.77060  -0.74067  -0.72116  -0.67224
 Alpha  occ. eigenvalues --   -0.66063  -0.60056  -0.57711  -0.56531  -0.53423
 Alpha  occ. eigenvalues --   -0.51942  -0.51189  -0.50394  -0.48827  -0.47863
 Alpha  occ. eigenvalues --   -0.46666  -0.44803  -0.42723  -0.42490  -0.40531
 Alpha  occ. eigenvalues --   -0.39944  -0.39522  -0.38558  -0.37590  -0.35816
 Alpha  occ. eigenvalues --   -0.34068  -0.32966  -0.31440  -0.30400  -0.27846
 Alpha  occ. eigenvalues --   -0.26743  -0.25114  -0.22352  -0.20085  -0.17237
 Alpha virt. eigenvalues --   -0.07364  -0.03453  -0.00150   0.03313   0.05783
 Alpha virt. eigenvalues --    0.06817   0.09127   0.10079   0.11156   0.12905
 Alpha virt. eigenvalues --    0.13859   0.14162   0.14373   0.15014   0.15790

 Mulliken charges:
               1
     1  N   -0.383821
     2  O   -0.294586
     3  C    0.416772
     4  C   -0.274539
     5  C   -0.106726
     6  C   -0.248679
     7  C    0.211723
     8  C   -0.429870
     9  C    0.369889
    10  C   -0.235710
    11  C   -0.098490
    12  C   -0.082198
    13  C   -0.249945
    14  C    0.136037
    15  C    0.090614
    16  C   -0.264881
    17  H    0.258351
    18  H    0.254209
    19  H    0.090914
    20  H    0.093811
    21  H    0.103302
    22  H    0.118144
    23  H    0.107214
    24  H    0.101829
    25  H    0.100044
    26  H    0.110160
    27  H    0.106431
 Sum of Mulliken charges =  -0.00000

 Dipole moment (field-independent basis, Debye):
    X=              0.1005    Y=             -1.8411    Z=              0.7779  Tot=              2.0013
 Quadrupole moment (field-independent basis, Debye-Ang):
   XX=            -77.0585   YY=            -86.2952   ZZ=            -89.9925
   XY=              4.3106   XZ=             -3.3695   YZ=              4.0555

  Exact polarizability: 241.866 -15.011 156.863   5.373  12.411 103.342
 Approx polarizability: 379.535 -35.983 295.658   7.572  26.295 182.412

                      1                      2                      3
                      A                      A                      A
 Frequencies --     60.1836                71.6073                95.2860
 Red. masses --      4.2408                 4.7299                 4.8918
 Frc consts  --      0.0091                 0.0143                 0.0262
 IR Inten    --      1.8677                 3.4274                 0.3883

                      4                      5                      6
                      A                      A                      A
 Frequencies --    114.2935               158.8777               188.5840
 Red. masses --      4.7034                 2.1566                 1.4098
 Frc consts  --      0.0362                 0.0321                 0.0295
 IR Inten    --      3.0033                13.3319                22.3654

                      7                      8                      9
                      A                      A                      A
 Frequencies --    231.8915               238.7954               276.0118
 Red. masses --      2.8272                 3.9412                 3.5532
 Frc consts  --      0.0896                 0.1324                 0.1595
 IR Inten    --      4.2225                 1.1233                 2.2686

                     10                     11                     12
                      A                      A                      A
 Frequencies --    280.8618               322.6111               356.2050
 Red. masses --      4.1911                 3.7630                 5.3397
 Frc consts  --      0.1948                 0.2307                 0.3992
 IR Inten    --      5.7666                 1.1005                 8.7344

                     13                     14                     15
                      A                      A                      A
 Frequencies --    413.1769               450.0323               471.0975
 Red. masses --      4.1491                 2.8393                 4.1713
 Frc consts  --      0.4173                 0.3388                 0.5454
 IR Inten    --      8.7786                 4.8515                 3.5339

                     16                     17                     18
                      A                      A                      A
 Frequencies --    494.1024               529.5022               547.4875
 Red. masses --      4.4425                 4.2255                 3.7465
 Frc consts  --      0.6390                 0.6980                 0.6616
 IR Inten    --     10.3646                 7.2705                 7.6374

                     19                     20                     21
                      A                      A                      A
 Frequencies --    559.3519               588.4401               601.4059
 Red. masses --      4.5623                 4.9894                 3.4447
 Frc consts  --      0.8410                 1.0179                 0.7341
 IR Inten    --      3.8780                25.7504                 1.5858

                     22                     23                     24
                      A                      A                      A
 Frequencies --    661.2027               690.3786               717.5572
 Red. masses --      2.6125                 3.5184                 1.9809
 Frc consts  --      0.6729                 0.9880                 0.6009
 IR Inten    --     21.8869                10.3618                 0.9679

                     25                     26                     27
                      A                      A                      A
 Frequencies --    736.7187               762.9490               777.4889
 Red. masses --      2.3766                 2.9340                 3.1027
 Frc consts  --      0.7600                 1.0062                 1.1051
 IR Inten    --     56.3485                15.0204                29.0380

                     28                     29                     30
                      A                      A                      A
 Frequencies --    785.3332               793.6337               807.8947
 Red. masses --      2.1805                 2.0841                 1.8045
 Frc consts  --      0.7924                 0.7734                 0.6939
 IR Inten    --     65.9601                30.3169                39.2917

                     31                     32                     33
                      A                      A                      A
 Frequencies --    838.1514               850.9400               878.9455
 Red. masses --      1.9017                 2.0555                 4.6246
 Frc consts  --      0.7871                 0.8769                 2.1050
 IR Inten    --      7.1964                14.6349                21.2471

                     34                     35                     36
                      A                      A                      A
 Frequencies --    911.5128               939.1415               945.9199
 Red. masses --      5.2622                 5.5231                 2.5643
 Frc consts  --      2.5760                 2.8701                 1.3519
 IR Inten    --      6.7655                 0.7986                 1.5424

                     37                     38                     39
                      A                      A                      A
 Frequencies --    958.0280               981.9551               993.9886
 Red. masses --      1.3846                 1.2790                 2.9532
 Frc consts  --      0.7488                 0.7266                 1.7191
 IR Inten    --      1.2107                 0.1554                 9.4731

                     40                     41                     42
                      A                      A                      A
 Frequencies --   1006.8582              1072.8092              1095.1857
 Red. masses --      1.6108                 3.4540                 2.0738
 Frc consts  --      0.9621                 2.3422                 1.4655
 IR Inten    --      6.5465                 8.9078                21.8998

                     43                     44                     45
                      A                      A                      A
 Frequencies --   1111.3336              1146.1043              1156.0378
 Red. masses --      2.5105                 1.7285                 1.4035
 Frc consts  --      1.8268                 1.3377                 1.1052
 IR Inten    --     76.6163                 1.9044                 0.8553

                     46                     47                     48
                      A                      A                      A
 Frequencies --   1190.2305              1215.2118              1253.1489
 Red. masses --      1.2151                 2.0234                 1.7135
 Frc consts  --      1.0142                 1.7605                 1.5854
 IR Inten    --      4.1831                 2.5555                78.9584

                     49                     50                     51
                      A                      A                      A
 Frequencies --   1267.0275              1274.4146              1298.9547
 Red. masses --      1.4062                 2.3271                 1.6160
 Frc consts  --      1.3301                 2.2268                 1.6065
 IR Inten    --      1.8726                 1.8547                12.9163

                     52                     53                     54
                      A                      A                      A
 Frequencies --   1312.4378              1331.6814              1340.2880
 Red. masses --      3.0845                 1.2334                 1.2851
 Frc consts  --      3.1304                 1.2888                 1.3602
 IR Inten    --      1.5800                 7.3684                 5.3418

                     55                     56                     57
                      A                      A                      A
 Frequencies --   1362.8667              1391.4498              1433.9572
 Red. masses --      1.8610                 1.6076                 1.8889
 Frc consts  --      2.0366                 1.8339                 2.2884
 IR Inten    --     59.7077                 2.4219                 3.2326

                     58                     59                     60
                      A                      A                      A
 Frequencies --   1559.9476              1569.7246              1584.0768
 Red. masses --      7.9059                 8.0392                 5.8650
 Frc consts  --     11.3351                11.6711                 8.6711
 IR Inten    --     54.0319                10.7053                 0.9884

                     61                     62                     63
                      A                      A                      A
 Frequencies --   1640.2083              1646.9557              1652.0783
 Red. masses --      5.5640                 5.9493                 1.1185
 Frc consts  --      8.8193                 9.5079                 1.7987
 IR Inten    --     20.7134                72.6708                37.5865

                     64                     65                     66
                      A                      A                      A
 Frequencies --   1688.0928              3065.3296              3140.7242
 Red. masses --      7.9210                 1.0850                 1.0871
 Frc consts  --     13.2992                 6.0069                 6.3180
 IR Inten    --      6.5316                24.9896                12.1154

                     67                     68                     69
                      A                      A                      A
 Frequencies --   3164.3721              3172.5751              3173.8305
 Red. masses --      1.0839                 1.0892                 1.0854
 Frc consts  --      6.3945                 6.4594                 6.4419
 IR Inten    --      2.7457                20.8322                 2.4990

                     70                     71                     72
                      A                      A                      A
 Frequencies --   3181.0012              3186.6775              3193.9033
 Red. masses --      1.0855                 1.0955                 1.0977
 Frc consts  --      6.4716                 6.5542                 6.5974
 IR Inten    --      2.0752                22.3857                32.4811

                     73                     74                     75
                      A                      A                      A
 Frequencies --   3219.5893              3415.5810              3518.7834
 Red. masses --      1.0983                 1.0514                 1.0914
 Frc consts  --      6.7079                 7.2271                 7.9619
 IR Inten    --      7.7199                 1.6513                 3.0429

 - Thermochemistry -
 -------------------
 Temperature   298.150 Kelvin.  Pressure   1.00000 Atm.
 Atom     1 has atomic number  7 and mass  14.00307

 Molecular mass:   209.08406 amu.
 Principal axes and moments of inertia in atomic units:
                           1         2         3
     Eigenvalues --  1570.125005191.137996080.23087
           X            1.00000  -0.00108  -0.00248
           Y            0.00112   0.99984   0.01774
           Z            0.00246  -0.01774   0.99984
 This molecule is an asymmetric top.
 Rotational symmetry number  1.
 Warning -- assumption of classical behavior for rotation
           may cause significant error
 Rotational temperatures (Kelvin)      0.05516     0.01668     0.01425
 Rotational constants (GHZ):           1.14943     0.34766     0.29682
 Zero-point vibrational energy     544988.7 (Joules/Mol)
                                  130.25542 (Kcal/Mol)
 Warning -- explicit consideration of  21 degrees of freedom as
           vibrations may cause significant error
 Vibrational temperatures:     86.59   103.03   137.10   164.44   228.59
          (Kelvin)            271.33   333.64   343.57   397.12   404.10
                              464.17   512.50   594.47   647.50   677.80
                              710.90   761.84   787.71   804.78   846.63
                              865.29   951.32   993.30  1032.40  1059.97
                             1097.71  1118.63  1129.92  1141.86  1162.38
                             1205.91  1224.31  1264.61  1311.46  1351.22
                             1360.97  1378.39  1412.81  1430.13  1448.64
                             1543.53  1575.73  1598.96  1648.99  1663.28
                             1712.48  1748.42  1803.00  1822.97  1833.60
                             1868.91  1888.31  1915.99  1928.38  1960.86
                             2001.99  2063.14  2244.42  2258.48  2279.13
                             2359.89  2369.60  2376.97  2428.79  4410.33
                             4518.80  4552.83  4564.63  4566.43  4576.75
                             4584.92  4595.31  4632.27  4914.26  5062.74

 Zero-point correction=                           0.207575 (Hartree/Particle)
 Thermal correction to Energy=                    0.220898
 Thermal correction to Enthalpy=                  0.221842
 Thermal correction to Gibbs Free Energy=         0.167933
 Sum of electronic and zero-point Energies=           -669.569840
 Sum of electronic and thermal Energies=              -669.556517
 Sum of electronic and thermal Enthalpies=            -669.555573
 Sum of electronic and thermal Free Energies=         -669.609482

                     E (Thermal)             CV                S
                      KCal/Mol        Cal/Mol-Kelvin    Cal/Mol-Kelvin
 Total                  138.615             53.440            113.461
 Electronic               0.000              0.000              0.000
 Translational            0.889              2.981             41.917
 Rotational               0.889              2.981             32.272
 Vibrational            136.838             47.478             39.272
 Vibration     1          0.597              1.973              4.451
 Vibration     2          0.598              1.968              4.109
 Vibration     3          0.603              1.953              3.549
 Vibration     4          0.607              1.938              3.195
 Vibration     5          0.621              1.893              2.563
 Vibration     6          0.633              1.856              2.242
 Vibration     7          0.653              1.792              1.864
 Vibration     8          0.657              1.781              1.812
 Vibration     9          0.678              1.718              1.558
 Vibration    10          0.681              1.709              1.528
 Vibration    11          0.708              1.630              1.297
 Vibration    12          0.732              1.563              1.139
 Vibration    13          0.777              1.442              0.915
 Vibration    14          0.809              1.361              0.796
 Vibration    15          0.828              1.314              0.734
 Vibration    16          0.850              1.263              0.673
 Vibration    17          0.884              1.185              0.588
 Vibration    18          0.903              1.145              0.549
 Vibration    19          0.915              1.119              0.525
 Vibration    20          0.946              1.056              0.470
 Vibration    21          0.960              1.029              0.447

                           ! Non-Optimized Parameters !
 Normal termination of Gaussian 16 at Thu May 18 00:20:55 2023.
