 Gaussian 16, Revision A.03,
 Gaussian 16:  ES64L-G16RevA.03 25-Dec-2016

 -----------------------------
 # opt freq b3lyp/6-31g(2df,p)
 -----------------------------

 -------------------
 Title Card Required
 -------------------
 Symbolic Z-matrix:
 Charge =  0 Multiplicity = 1

 SCF Done:  E(RB3LYP) =  -1286.93609955     A.U. after   21 cycles
 SCF Done:  E(RB3LYP) =  -1286.96966774     A.U. after   15 cycles
 SCF Done:  E(RB3LYP) =  -1286.98993095     A.U. after   15 cycles
 SCF Done:  E(RB3LYP) =  -1286.99548324     A.U. after   14 cycles
 SCF Done:  E(RB3LYP) =  -1286.99687065     A.U. after   13 cycles
 SCF Done:  E(RB3LYP) =  -1286.99764541     A.U. after   14 cycles
 SCF Done:  E(RB3LYP) =  -1286.99813951     A.U. after   12 cycles
 SCF Done:  E(RB3LYP) =  -1286.99864880     A.U. after   13 cycles
 SCF Done:  E(RB3LYP) =  -1286.99916164     A.U. after   13 cycles
 SCF Done:  E(RB3LYP) =  -1286.99968109     A.U. after   14 cycles
 SCF Done:  E(RB3LYP) =  -1287.00057314     A.U. after   12 cycles
 SCF Done:  E(RB3LYP) =  -1287.00070352     A.U. after   13 cycles
 SCF Done:  E(RB3LYP) =  -1287.00103692     A.U. after   13 cycles
 SCF Done:  E(RB3LYP) =  -1287.00113471     A.U. after   11 cycles
 SCF Done:  E(RB3LYP) =  -1287.00116365     A.U. after   10 cycles
 SCF Done:  E(RB3LYP) =  -1287.00117770     A.U. after   10 cycles
 SCF Done:  E(RB3LYP) =  -1287.00118736     A.U. after   10 cycles
 SCF Done:  E(RB3LYP) =  -1287.00118861     A.U. after    9 cycles
 SCF Done:  E(RB3LYP) =  -1287.00118889     A.U. after    8 cycles
 Optimization completed.
    -- Stationary point found.
 Normal termination of Gaussian 16 at Sat May 20 05:58:52 2023.

 ----------------------------------------------------------------------
 #N Geom=AllCheck Guess=TCheck SCRF=Check GenChk RB3LYP/6-31G(2df,p) Fr
 eq
 ----------------------------------------------------------------------

 Structure from the checkpoint file:  "NOCqNrCC1dNNqCdSrCd[SH]1.chk"
 -------------------
 Title Card Required
 -------------------
 Charge =  0 Multiplicity = 1

                         Standard orientation:
 ---------------------------------------------------------------------
 Center     Atomic      Atomic             Coordinates (Angstroms)
 Number     Number       Type             X           Y           Z
 ---------------------------------------------------------------------
      1          7           0        4.524084   -1.256963    0.619806
      2          8           0        3.460366   -1.219942   -0.347812
      3          6           0        2.439702   -0.344660    0.137928
      4          7           0        2.831873    1.037134    0.255740
      5          6           0        1.293169   -0.497394   -0.867539
      6          6           0        0.021361    0.152000   -0.434500
      7          7           0       -1.107002   -0.450219   -0.391842
      8          7           0       -2.124097    0.382582   -0.045855
      9          6           0       -3.363595   -0.098595    0.239347
     10         16           0       -3.896817   -1.648994    0.210766
     11          6           0       -1.764452    1.756040   -0.163677
     12         16           0       -0.092392    1.913600    0.076129
     13          1           0        5.361859   -1.094884    0.062456
     14          1           0        4.568336   -2.238608    0.894625
     15          1           0        2.128528   -0.685888    1.133451
     16          1           0        3.226081    1.364882   -0.622454
     17          1           0        3.549341    1.126190    0.968286
     18          1           0        1.084225   -1.556722   -1.029332
     19          1           0        1.618680   -0.075648   -1.828090
     20          1           0       -4.025763    0.726922    0.504968
     21          1           0       -2.460060    2.502411    0.188532
     22          1           0        0.462073    1.665097    1.385442
 ---------------------------------------------------------------------

 SCF Done:  E(RB3LYP) =  -1287.00118889     A.U. after    1 cycles

 The electronic state is 1-A.
 Alpha  occ. eigenvalues --  -88.96446 -88.82067 -19.18174 -14.42604 -14.38639
 Alpha  occ. eigenvalues --  -14.38540 -14.33901 -10.27895 -10.27125 -10.25822
 Alpha  occ. eigenvalues --  -10.22034 -10.21144  -8.01924  -7.88619  -5.98227
 Alpha  occ. eigenvalues --   -5.98149  -5.97754  -5.84997  -5.84775  -5.84178
 Alpha  occ. eigenvalues --   -1.08191  -1.06491  -0.91725  -0.88944  -0.83353
 Alpha  occ. eigenvalues --   -0.83132  -0.77802  -0.73278  -0.65491  -0.64224
 Alpha  occ. eigenvalues --   -0.61244  -0.55864  -0.54155  -0.52470  -0.50996
 Alpha  occ. eigenvalues --   -0.49547  -0.48753  -0.47186  -0.45959  -0.45745
 Alpha  occ. eigenvalues --   -0.45122  -0.41467  -0.39199  -0.38162  -0.37244
 Alpha  occ. eigenvalues --   -0.34796  -0.31941  -0.31011  -0.30337  -0.28780
 Alpha  occ. eigenvalues --   -0.26809  -0.25029  -0.19863  -0.17613
 Alpha virt. eigenvalues --   -0.05845  -0.01968   0.01958   0.03706   0.05744
 Alpha virt. eigenvalues --    0.07044   0.08646   0.09119   0.11043   0.11514
 Alpha virt. eigenvalues --    0.12191   0.12520   0.13619   0.15063   0.16166

 Mulliken charges:
               1
     1  N   -0.405204
     2  O   -0.272740
     3  C    0.150426
     4  N   -0.497820
     5  C   -0.331504
     6  C    0.269015
     7  N   -0.149987
     8  N    0.037153
     9  C    0.071410
    10  S   -0.363535
    11  C   -0.250605
    12  S    0.052397
    13  H    0.256002
    14  H    0.259076
    15  H    0.098490
    16  H    0.232196
    17  H    0.248529
    18  H    0.161502
    19  H    0.134459
    20  H    0.131367
    21  H    0.128187
    22  H    0.041185
 Sum of Mulliken charges =  -0.00000

 Dipole moment (field-independent basis, Debye):
    X=              7.4519    Y=              2.8109    Z=              0.5433  Tot=              7.9829
 Quadrupole moment (field-independent basis, Debye-Ang):
   XX=            -80.6628   YY=            -85.3343   ZZ=            -84.9907
   XY=            -15.4398   XZ=             -1.2960   YZ=              0.4192

  Exact polarizability: 216.666  32.263 139.599   1.711   1.418  83.969
 Approx polarizability: 337.440  79.544 253.511  11.891   4.798 149.790

                      1                      2                      3
                      A                      A                      A
 Frequencies --     37.7213                56.8519                94.5202
 Red. masses --      5.4410                 4.2904                 7.1982
 Frc consts  --      0.0046                 0.0082                 0.0379
 IR Inten    --      0.6225                 0.8264                 2.4886

                      4                      5                      6
                      A                      A                      A
 Frequencies --    115.6139               130.8717               152.8084
 Red. masses --      5.9977                 5.0801                 4.9143
 Frc consts  --      0.0472                 0.0513                 0.0676
 IR Inten    --      5.2420                 1.8902                 0.6788

                      7                      8                      9
                      A                      A                      A
 Frequencies --    206.3268               214.3026               246.9108
 Red. masses --      1.9082                 1.4350                 5.3175
 Frc consts  --      0.0479                 0.0388                 0.1910
 IR Inten    --     11.9701                21.9380                 2.8054

                     10                     11                     12
                      A                      A                      A
 Frequencies --    274.7264               296.2128               349.5715
 Red. masses --      3.6707                 5.5332                 4.7029
 Frc consts  --      0.1632                 0.2860                 0.3386
 IR Inten    --      1.4150                 1.9559                 3.0024

                     13                     14                     15
                      A                      A                      A
 Frequencies --    390.7662               393.9317               412.8883
 Red. masses --      4.3502                 1.1030                 3.0651
 Frc consts  --      0.3914                 0.1009                 0.3079
 IR Inten    --      4.0579                 6.1577                53.8770

                     16                     17                     18
                      A                      A                      A
 Frequencies --    473.5425               514.1716               534.9150
 Red. masses --      1.6425                 2.6293                 6.2731
 Frc consts  --      0.2170                 0.4096                 1.0576
 IR Inten    --     60.0088                 2.8576                21.4660

                     19                     20                     21
                      A                      A                      A
 Frequencies --    561.5296               604.4775               621.7502
 Red. masses --      4.2941                 4.1447                 5.1408
 Frc consts  --      0.7977                 0.8923                 1.1709
 IR Inten    --     50.4062                53.5211                 7.4388

                     22                     23                     24
                      A                      A                      A
 Frequencies --    711.9601               788.3707               860.1285
 Red. masses --      4.1532                 1.4318                 2.0956
 Frc consts  --      1.2404                 0.5243                 0.9134
 IR Inten    --     32.2449                 7.3926                81.7545

                     25                     26                     27
                      A                      A                      A
 Frequencies --    863.1428               889.8430               897.5075
 Red. masses --      1.7195                 1.4862                 1.9130
 Frc consts  --      0.7548                 0.6933                 0.9079
 IR Inten    --     46.4737                11.1259                 6.2545

                     28                     29                     30
                      A                      A                      A
 Frequencies --    933.3661               940.8243               954.0539
 Red. masses --      1.9945                 6.3713                 3.9996
 Frc consts  --      1.0237                 3.3227                 2.1450
 IR Inten    --     14.9214                 6.8688                32.8518

                     31                     32                     33
                      A                      A                      A
 Frequencies --    979.9186               998.9761              1033.1331
 Red. masses --      1.9353                 3.4860                 3.2325
 Frc consts  --      1.0949                 2.0497                 2.0329
 IR Inten    --      9.6119               169.0384                86.4085

                     34                     35                     36
                      A                      A                      A
 Frequencies --   1127.5447              1157.1416              1170.0556
 Red. masses --      1.6808                 1.9239                 3.7572
 Frc consts  --      1.2590                 1.5178                 3.0306
 IR Inten    --     34.1156                11.7713               149.6228

                     37                     38                     39
                      A                      A                      A
 Frequencies --   1173.3439              1221.0504              1227.8154
 Red. masses --      2.4961                 1.4519                 1.4861
 Frc consts  --      2.0247                 1.2754                 1.3200
 IR Inten    --     67.4973               110.4250                77.6380

                     40                     41                     42
                      A                      A                      A
 Frequencies --   1295.2444              1310.3559              1325.4345
 Red. masses --      1.3695                 1.2851                 1.2880
 Frc consts  --      1.3537                 1.3000                 1.3331
 IR Inten    --      7.0922                10.1007                 3.1642

                     43                     44                     45
                      A                      A                      A
 Frequencies --   1382.5661              1393.4681              1432.9851
 Red. masses --      1.4296                 1.9930                 1.3803
 Frc consts  --      1.6101                 2.2801                 1.6700
 IR Inten    --     22.1515               267.5753                24.0046

                     46                     47                     48
                      A                      A                      A
 Frequencies --   1459.9456              1466.4621              1647.0477
 Red. masses --      1.6967                 1.5178                10.3638
 Frc consts  --      2.1307                 1.9231                16.5646
 IR Inten    --    243.5968               155.4249                 7.0285

                     49                     50                     51
                      A                      A                      A
 Frequencies --   1654.1873              1665.7819              1877.6336
 Red. masses --      1.0697                 1.0937                 1.0447
 Frc consts  --      1.7245                 1.7880                 2.1701
 IR Inten    --     17.1368                25.6795               622.3295

                     52                     53                     54
                      A                      A                      A
 Frequencies --   3021.9867              3039.0303              3107.4108
 Red. masses --      1.0722                 1.0807                 1.0853
 Frc consts  --      5.7692                 5.8806                 6.1743
 IR Inten    --      0.3725                31.5226                15.6378

                     55                     56                     57
                      A                      A                      A
 Frequencies --   3123.5109              3254.1218              3435.4550
 Red. masses --      1.0929                 1.0892                 1.0481
 Frc consts  --      6.2826                 6.7957                 7.2884
 IR Inten    --      0.9044                 0.7766                 0.5631

                     58                     59                     60
                      A                      A                      A
 Frequencies --   3492.6600              3518.2646              3580.2500
 Red. masses --      1.0491                 1.0951                 1.0919
 Frc consts  --      7.5405                 7.9863                 8.2465
 IR Inten    --      5.5183                 1.5578                 8.9859

 - Thermochemistry -
 -------------------
 Temperature   298.150 Kelvin.  Pressure   1.00000 Atm.
 Atom     1 has atomic number  7 and mass  14.00307

 Molecular mass:   206.02960 amu.
 Principal axes and moments of inertia in atomic units:
                           1         2         3
     Eigenvalues --  1314.098395567.951726634.79366
           X            0.99987  -0.01583   0.00151
           Y            0.01582   0.99985   0.00750
           Z           -0.00163  -0.00748   0.99997
 This molecule is an asymmetric top.
 Rotational symmetry number  1.
 Warning -- assumption of classical behavior for rotation
           may cause significant error
 Rotational temperatures (Kelvin)      0.06591     0.01556     0.01305
 Rotational constants (GHZ):           1.37337     0.32413     0.27201
 Zero-point vibrational energy     431232.2 (Joules/Mol)
                                  103.06696 (Kcal/Mol)
 Warning -- explicit consideration of  20 degrees of freedom as
           vibrations may cause significant error
 Vibrational temperatures:     54.27    81.80   135.99   166.34   188.30
          (Kelvin)            219.86   296.86   308.33   355.25   395.27
                              426.18   502.96   562.23   566.78   594.05
                              681.32   739.78   769.62   807.92   869.71
                              894.56  1024.35  1134.29  1237.53  1241.87
                             1280.29  1291.31  1342.91  1353.64  1372.67
                             1409.88  1437.30  1486.45  1622.29  1664.87
                             1683.45  1688.18  1756.82  1766.55  1863.57
                             1885.31  1907.00  1989.20  2004.89  2061.75
                             2100.54  2109.91  2369.73  2380.01  2396.69
                             2701.50  4347.96  4372.49  4470.87  4494.04
                             4681.96  4942.85  5025.16  5062.00  5151.18

 Zero-point correction=                           0.164248 (Hartree/Particle)
 Thermal correction to Energy=                    0.177281
 Thermal correction to Enthalpy=                  0.178225
 Thermal correction to Gibbs Free Energy=         0.123687
 Sum of electronic and zero-point Energies=          -1286.836941
 Sum of electronic and thermal Energies=             -1286.823908
 Sum of electronic and thermal Enthalpies=           -1286.822964
 Sum of electronic and thermal Free Energies=        -1286.877502

                     E (Thermal)             CV                S
                      KCal/Mol        Cal/Mol-Kelvin    Cal/Mol-Kelvin
 Total                  111.246             47.702            114.785
 Electronic               0.000              0.000              0.000
 Translational            0.889              2.981             41.873
 Rotational               0.889              2.981             32.251
 Vibrational            109.468             41.740             40.661
 Vibration     1          0.594              1.982              5.375
 Vibration     2          0.596              1.975              4.564
 Vibration     3          0.603              1.953              3.564
 Vibration     4          0.608              1.936              3.172
 Vibration     5          0.612              1.922              2.933
 Vibration     6          0.619              1.900              2.637
 Vibration     7          0.641              1.831              2.076
 Vibration     8          0.644              1.819              2.007
 Vibration     9          0.661              1.768              1.753
 Vibration    10          0.677              1.720              1.566
 Vibration    11          0.690              1.681              1.438
 Vibration    12          0.727              1.576              1.168
 Vibration    13          0.758              1.490              0.997
 Vibration    14          0.761              1.483              0.985
 Vibration    15          0.777              1.442              0.916
 Vibration    16          0.830              1.309              0.728
 Vibration    17          0.869              1.219              0.624
 Vibration    18          0.890              1.173              0.576
 Vibration    19          0.917              1.115              0.521
 Vibration    20          0.963              1.022              0.442

 Optimization completed.
    -- Stationary point found.
 Normal termination of Gaussian 16 at Sat May 20 06:54:05 2023.
