 Gaussian 16, Revision A.03,
 Gaussian 16:  ES64L-G16RevA.03 25-Dec-2016

 -----------------------------
 # opt freq b3lyp/6-31g(2df,p)
 -----------------------------

 -------------------
 Title Card Required
 -------------------
 Symbolic Z-matrix:
 Charge =  0 Multiplicity = 1

 SCF Done:  E(RB3LYP) =  -853.118384321     A.U. after   18 cycles
 SCF Done:  E(RB3LYP) =  -853.134652886     A.U. after   15 cycles
 SCF Done:  E(RB3LYP) =  -853.135227135     A.U. after   16 cycles
 SCF Done:  E(RB3LYP) =  -853.137412395     A.U. after   16 cycles
 SCF Done:  E(RB3LYP) =  -853.136877364     A.U. after   14 cycles
 SCF Done:  E(RB3LYP) =  -853.137444541     A.U. after   13 cycles
 SCF Done:  E(RB3LYP) =  -853.138119019     A.U. after   13 cycles
 SCF Done:  E(RB3LYP) =  -853.138180153     A.U. after   13 cycles
 SCF Done:  E(RB3LYP) =  -853.138215970     A.U. after   11 cycles
 SCF Done:  E(RB3LYP) =  -853.138216777     A.U. after    8 cycles
 SCF Done:  E(RB3LYP) =  -853.138217028     A.U. after    9 cycles
 Optimization completed.
    -- Stationary point found.
 Normal termination of Gaussian 16 at Thu May 18 09:38:30 2023.

 ----------------------------------------------------------------------
 #N Geom=AllCheck Guess=TCheck SCRF=Check GenChk RB3LYP/6-31G(2df,p) Fr
 eq
 ----------------------------------------------------------------------

 Structure from the checkpoint file:  "NtCC1[SH]dCC1dNCdCCdO.chk"
 -------------------
 Title Card Required
 -------------------
 Charge =  0 Multiplicity = 1

                         Standard orientation:
 ---------------------------------------------------------------------
 Center     Atomic      Atomic             Coordinates (Angstroms)
 Number     Number       Type             X           Y           Z
 ---------------------------------------------------------------------
      1          7           0       -1.147292    2.753693   -0.597804
      2          6           0       -1.263043    1.727852   -0.075686
      3          6           0       -1.423345    0.440713    0.558345
      4         16           0       -3.115726   -0.349609    0.273800
      5          6           0       -2.014377   -1.553431   -0.298721
      6          6           0       -0.816322   -0.845961   -0.128280
      7          7           0        0.408200   -1.151115   -0.373930
      8          6           0        1.435371   -0.347592    0.032364
      9          6           0        2.738391   -0.611943   -0.214527
     10          6           0        3.778341    0.285038    0.261456
     11          8           0        4.971778    0.129444    0.098051
     12          1           0       -1.248730    0.499694    1.634551
     13          1           0       -3.461347    0.541776   -0.740483
     14          1           0       -2.277140   -2.513506   -0.708600
     15          1           0        1.205017    0.567325    0.593930
     16          1           0        3.030874   -1.496492   -0.770075
     17          1           0        3.392256    1.173304    0.817912
 ---------------------------------------------------------------------

 SCF Done:  E(RB3LYP) =  -853.138217028     A.U. after    1 cycles

 The electronic state is 1-A.
 Alpha  occ. eigenvalues --  -89.01741 -19.10452 -14.37639 -14.32874 -10.31880
 Alpha  occ. eigenvalues --  -10.27782 -10.26608 -10.24282 -10.23421 -10.23101
 Alpha  occ. eigenvalues --  -10.17282  -8.07454  -6.03750  -6.03659  -6.03252
 Alpha  occ. eigenvalues --   -1.01000  -0.97139  -0.94283  -0.91578  -0.78487
 Alpha  occ. eigenvalues --   -0.78151  -0.72582  -0.63207  -0.60225  -0.56719
 Alpha  occ. eigenvalues --   -0.55609  -0.52465  -0.50075  -0.47965  -0.45495
 Alpha  occ. eigenvalues --   -0.43947  -0.41639  -0.40173  -0.39721  -0.39432
 Alpha  occ. eigenvalues --   -0.38525  -0.37106  -0.36813  -0.36164  -0.29046
 Alpha  occ. eigenvalues --   -0.26991  -0.22761  -0.21132
 Alpha virt. eigenvalues --   -0.10632  -0.06070  -0.03065  -0.02063   0.00689
 Alpha virt. eigenvalues --    0.03493   0.05383   0.07607   0.09447   0.11669
 Alpha virt. eigenvalues --    0.13006   0.14130   0.16176   0.16845   0.17304

 Mulliken charges:
               1
     1  N   -0.283484
     2  C    0.291377
     3  C   -0.298017
     4  S    0.126329
     5  C   -0.288148
     6  C    0.396516
     7  N   -0.345515
     8  C    0.053950
     9  C   -0.232635
    10  C    0.155949
    11  O   -0.300682
    12  H    0.194355
    13  H    0.143593
    14  H    0.152786
    15  H    0.078300
    16  H    0.107591
    17  H    0.047736
 Sum of Mulliken charges =  -0.00000

 Dipole moment (field-independent basis, Debye):
    X=             -9.2588    Y=             -1.0665    Z=              1.9982  Tot=              9.5319
 Quadrupole moment (field-independent basis, Debye-Ang):
   XX=            -84.2491   YY=            -77.6117   ZZ=            -68.0055
   XY=              3.4362   XZ=              0.1065   YZ=              3.9259

  Exact polarizability: 239.930   3.414 105.240   1.156   4.226  63.082
 Approx polarizability: 430.613   9.604 184.324  -5.200   1.701 108.068

                      1                      2                      3
                      A                      A                      A
 Frequencies --     46.8709                69.7659                91.5144
 Red. masses --      9.9721                 7.6662                 2.1400
 Frc consts  --      0.0129                 0.0220                 0.0106
 IR Inten    --      0.3265                 0.9162                 6.8204

                      4                      5                      6
                      A                      A                      A
 Frequencies --    121.0794               144.7331               187.1489
 Red. masses --      6.8614                 4.5394                 6.3110
 Frc consts  --      0.0593                 0.0560                 0.1302
 IR Inten    --      0.4869                 8.9351                 4.1804

                      7                      8                      9
                      A                      A                      A
 Frequencies --    231.2115               242.8047               334.4034
 Red. masses --      6.2594                 6.1806                 7.9864
 Frc consts  --      0.1972                 0.2147                 0.5262
 IR Inten    --      6.5789                10.3996                 1.9900

                     10                     11                     12
                      A                      A                      A
 Frequencies --    378.2153               418.3019               435.2598
 Red. masses --      2.7681                 6.1451                11.3241
 Frc consts  --      0.2333                 0.6335                 1.2640
 IR Inten    --      3.0565                 5.3216                 4.3790

                     13                     14                     15
                      A                      A                      A
 Frequencies --    480.4956               559.0630               587.3313
 Red. masses --      3.1092                 8.3087                 1.9221
 Frc consts  --      0.4229                 1.5301                 0.3907
 IR Inten    --     14.4463                 3.7046                41.1480

                     16                     17                     18
                      A                      A                      A
 Frequencies --    638.1783               656.1824               701.0311
 Red. masses --      2.9256                 7.7538                 3.0140
 Frc consts  --      0.7020                 1.9670                 0.8727
 IR Inten    --     40.6984                12.4759               171.4039

                     19                     20                     21
                      A                      A                      A
 Frequencies --    802.3964               833.2844               851.9346
 Red. masses --      3.0314                 1.4139                 4.0041
 Frc consts  --      1.1499                 0.5784                 1.7122
 IR Inten    --    194.6666                99.2359                36.1756

                     22                     23                     24
                      A                      A                      A
 Frequencies --    880.9601               951.5710               984.0037
 Red. masses --      1.6368                 1.2678                 1.2363
 Frc consts  --      0.7484                 0.6763                 0.7053
 IR Inten    --      6.7357                46.4617                20.0935

                     25                     26                     27
                      A                      A                      A
 Frequencies --   1030.6721              1031.3260              1102.1720
 Red. masses --      1.6728                 2.9438                 1.2210
 Frc consts  --      1.0470                 1.8448                 0.8739
 IR Inten    --      0.4912                10.2737                 6.9271

                     28                     29                     30
                      A                      A                      A
 Frequencies --   1134.6498              1147.4414              1171.9569
 Red. masses --      1.4076                 3.0517                 4.1980
 Frc consts  --      1.0677                 2.3673                 3.3971
 IR Inten    --     14.0821               199.1751               106.1383

                     31                     32                     33
                      A                      A                      A
 Frequencies --   1247.6046              1269.4553              1335.3737
 Red. masses --      1.6552                 1.4106                 4.0975
 Frc consts  --      1.5179                 1.3393                 4.3050
 IR Inten    --     21.5548                 4.8257                 4.7684

                     34                     35                     36
                      A                      A                      A
 Frequencies --   1350.1600              1440.0043              1649.0040
 Red. masses --      1.3794                 1.2749                 5.7238
 Frc consts  --      1.4816                 1.5576                 9.1703
 IR Inten    --      3.1462                 3.6347              1430.5681

                     37                     38                     39
                      A                      A                      A
 Frequencies --   1710.7889              1778.9315              2228.0691
 Red. masses --      8.2717                 9.5942                 1.0427
 Frc consts  --     14.2639                17.8886                 3.0498
 IR Inten    --    505.6534               193.3235               337.9364

                     40                     41                     42
                      A                      A                      A
 Frequencies --   2345.2783              2830.9985              3027.5486
 Red. masses --     12.5720                 1.0797                 1.0842
 Frc consts  --     40.7419                 5.0982                 5.8550
 IR Inten    --      2.9549               107.1564                35.5397

                     43                     44                     45
                      A                      A                      A
 Frequencies --   3109.9638              3198.1325              3285.0752
 Red. masses --      1.0843                 1.0909                 1.0957
 Frc consts  --      6.1787                 6.5742                 6.9666
 IR Inten    --      1.3203                 2.1071                12.1827

 - Thermochemistry -
 -------------------
 Temperature   298.150 Kelvin.  Pressure   1.00000 Atm.
 Atom     1 has atomic number  7 and mass  14.00307

 Molecular mass:   166.02008 amu.
 Principal axes and moments of inertia in atomic units:
                           1         2         3
     Eigenvalues --   870.402674196.436984915.17368
           X            0.99999   0.00353   0.00293
           Y           -0.00360   0.99973   0.02293
           Z           -0.00285  -0.02294   0.99973
 This molecule is an asymmetric top.
 Rotational symmetry number  1.
 Warning -- assumption of classical behavior for rotation
           may cause significant error
 Rotational temperatures (Kelvin)      0.09951     0.02064     0.01762
 Rotational constants (GHZ):           2.07346     0.43007     0.36718
 Zero-point vibrational energy     299379.5 (Joules/Mol)
                                   71.55342 (Kcal/Mol)
 Warning -- explicit consideration of  15 degrees of freedom as
           vibrations may cause significant error
 Vibrational temperatures:     67.44   100.38   131.67   174.21   208.24
          (Kelvin)            269.27   332.66   349.34   481.13   544.17
                              601.84   626.24   691.33   804.37   845.04
                              918.20   944.10  1008.63  1154.47  1198.91
                             1225.74  1267.51  1369.10  1415.76  1482.91
                             1483.85  1585.78  1632.51  1650.91  1686.18
                             1795.02  1826.46  1921.30  1942.58  2071.85
                             2372.55  2461.44  2559.49  3205.69  3374.33
                             4073.18  4355.97  4474.54  4601.40  4726.49

 Zero-point correction=                           0.114028 (Hartree/Particle)
 Thermal correction to Energy=                    0.125001
 Thermal correction to Enthalpy=                  0.125945
 Thermal correction to Gibbs Free Energy=         0.075969
 Sum of electronic and zero-point Energies=           -853.024189
 Sum of electronic and thermal Energies=              -853.013216
 Sum of electronic and thermal Enthalpies=            -853.012272
 Sum of electronic and thermal Free Energies=         -853.062248

                     E (Thermal)             CV                S
                      KCal/Mol        Cal/Mol-Kelvin    Cal/Mol-Kelvin
 Total                   78.439             38.900            105.182
 Electronic               0.000              0.000              0.000
 Translational            0.889              2.981             41.229
 Rotational               0.889              2.981             31.263
 Vibrational             76.662             32.939             32.690
 Vibration     1          0.595              1.979              4.945
 Vibration     2          0.598              1.969              4.160
 Vibration     3          0.602              1.955              3.627
 Vibration     4          0.609              1.932              3.083
 Vibration     5          0.616              1.908              2.740
 Vibration     6          0.632              1.857              2.256
 Vibration     7          0.653              1.793              1.870
 Vibration     8          0.659              1.775              1.782
 Vibration     9          0.716              1.607              1.239
 Vibration    10          0.748              1.517              1.046
 Vibration    11          0.781              1.430              0.898
 Vibration    12          0.796              1.393              0.842
 Vibration    13          0.837              1.293              0.709
 Vibration    14          0.915              1.120              0.526
 Vibration    15          0.944              1.059              0.472

 Optimization completed.
    -- Stationary point found.
 Normal termination of Gaussian 16 at Thu May 18 10:06:20 2023.
