 Gaussian 16, Revision A.03,
 Gaussian 16:  ES64L-G16RevA.03 25-Dec-2016

 -----------------------------
 # opt freq b3lyp/6-31g(2df,p)
 -----------------------------

 -------------------
 Title Card Required
 -------------------
 Symbolic Z-matrix:
 Charge =  0 Multiplicity = 1

 SCF Done:  E(RB3LYP) =  -1253.39626853     A.U. after   21 cycles
 SCF Done:  E(RB3LYP) =  -1253.43804448     A.U. after   16 cycles
 SCF Done:  E(RB3LYP) =  -1253.45685872     A.U. after   16 cycles
 SCF Done:  E(RB3LYP) =  -1253.46635783     A.U. after   15 cycles
 SCF Done:  E(RB3LYP) =  -1253.47102952     A.U. after   17 cycles
 SCF Done:  E(RB3LYP) =  -1253.46595787     A.U. after   17 cycles
 SCF Done:  E(RB3LYP) =  -1253.47638045     A.U. after   15 cycles
 SCF Done:  E(RB3LYP) =  -1253.47304163     A.U. after   17 cycles
 SCF Done:  E(RB3LYP) =  -1253.47728553     A.U. after   15 cycles
 SCF Done:  E(RB3LYP) =  -1253.48097909     A.U. after   16 cycles
 SCF Done:  E(RB3LYP) =  -1253.50154060     A.U. after   13 cycles
 SCF Done:  E(RB3LYP) =  -1253.50185087     A.U. after   12 cycles
 SCF Done:  E(RB3LYP) =  -1253.50199504     A.U. after   13 cycles
 SCF Done:  E(RB3LYP) =  -1253.50193481     A.U. after   12 cycles
 SCF Done:  E(RB3LYP) =  -1253.50204775     A.U. after   12 cycles
 SCF Done:  E(RB3LYP) =  -1253.50206163     A.U. after   10 cycles
 SCF Done:  E(RB3LYP) =  -1253.50206584     A.U. after   10 cycles
 SCF Done:  E(RB3LYP) =  -1253.50206612     A.U. after    8 cycles
 SCF Done:  E(RB3LYP) =  -1253.50206618     A.U. after    7 cycles
 Optimization completed.
    -- Stationary point found.
 Normal termination of Gaussian 16 at Wed May 17 22:28:34 2023.

 ----------------------------------------------------------------------
 #N Geom=AllCheck Guess=TCheck SCRF=Check GenChk RB3LYP/6-31G(2df,p) Fr
 eq
 ----------------------------------------------------------------------

 Structure from the checkpoint file:  "NtCC1dCCdCNdCq[SH]dCdCSrC1.chk"
 -------------------
 Title Card Required
 -------------------
 Charge =  0 Multiplicity = 1

                         Standard orientation:
 ---------------------------------------------------------------------
 Center     Atomic      Atomic             Coordinates (Angstroms)
 Number     Number       Type             X           Y           Z
 ---------------------------------------------------------------------
      1          7           0        4.051483   -2.027225   -0.720380
      2          6           0        3.418050   -1.120084   -0.373782
      3          6           0        2.624190   -0.032359    0.087220
      4          6           0        2.808135    1.227617   -0.399339
      5          6           0        1.963542    2.341618   -0.101291
      6          6           0        0.636320    2.274042    0.219609
      7          7           0       -0.148809    1.150797    0.173718
      8          6           0        0.245769   -0.020954    0.469058
      9         16           0       -0.862492   -1.478138   -0.020935
     10          6           0       -2.550720   -1.703318    0.137692
     11          6           0       -3.553163   -0.858178   -0.073327
     12         16           0       -3.665140    0.893801   -0.355977
     13          6           0        1.576614   -0.308991    1.138125
     14          1           0        3.654486    1.401797   -1.057288
     15          1           0        2.376596    3.333322   -0.260064
     16          1           0        0.081065    3.196759    0.362471
     17          1           0       -0.438399   -2.188838    1.044623
     18          1           0       -4.557033   -1.281405   -0.072783
     19          1           0       -2.343820    1.169638   -0.276291
     20          1           0        1.646720   -1.330903    1.514075
     21          1           0        1.691363    0.387650    1.978686
 ---------------------------------------------------------------------

 SCF Done:  E(RB3LYP) =  -1253.50206618     A.U. after    1 cycles

 The electronic state is 1-A.
 Alpha  occ. eigenvalues --  -88.97053 -88.87281 -14.37461 -14.34447 -10.28808
 Alpha  occ. eigenvalues --  -10.26028 -10.25772 -10.24566 -10.23784 -10.23493
 Alpha  occ. eigenvalues --  -10.22591 -10.21727 -10.18838  -8.02654  -7.93878
 Alpha  occ. eigenvalues --   -5.99054  -5.98837  -5.98413  -5.90322  -5.89924
 Alpha  occ. eigenvalues --   -5.89474  -0.98613  -0.91878  -0.86175  -0.85176
 Alpha  occ. eigenvalues --   -0.81325  -0.77768  -0.73508  -0.70844  -0.68040
 Alpha  occ. eigenvalues --   -0.62220  -0.57411  -0.56085  -0.53537  -0.51054
 Alpha  occ. eigenvalues --   -0.50356  -0.47806  -0.46253  -0.45148  -0.43066
 Alpha  occ. eigenvalues --   -0.42381  -0.40424  -0.39278  -0.37695  -0.37440
 Alpha  occ. eigenvalues --   -0.36766  -0.35661  -0.34413  -0.32296  -0.30973
 Alpha  occ. eigenvalues --   -0.29599  -0.26037  -0.21815  -0.21208
 Alpha virt. eigenvalues --   -0.09431  -0.05126  -0.03526  -0.00118   0.01913
 Alpha virt. eigenvalues --    0.03551   0.04688   0.05330   0.06914   0.08257
 Alpha virt. eigenvalues --    0.09484   0.10301   0.11369   0.12359   0.14392

 Mulliken charges:
               1
     1  N   -0.327571
     2  C    0.224040
     3  C    0.111383
     4  C   -0.112210
     5  C   -0.110468
     6  C   -0.032106
     7  N   -0.195345
     8  C    0.159833
     9  S    0.046855
    10  C   -0.162018
    11  C   -0.114563
    12  S   -0.240416
    13  C   -0.403713
    14  H    0.131409
    15  H    0.118747
    16  H    0.132674
    17  H    0.165903
    18  H    0.140954
    19  H    0.175012
    20  H    0.139688
    21  H    0.151912
 Sum of Mulliken charges =  -0.00000

 Dipole moment (field-independent basis, Debye):
    X=              1.8106    Y=              3.4221    Z=              2.2863  Tot=              4.4963
 Quadrupole moment (field-independent basis, Debye-Ang):
   XX=           -107.8962   YY=            -89.8627   ZZ=            -89.6353
   XY=             13.7077   XZ=              3.2169   YZ=             -4.8644

  Exact polarizability: 241.937  -3.833 172.138  -3.989  -4.108  82.665
 Approx polarizability: 382.780 -15.836 337.000  -9.730  -9.564 142.296

                      1                      2                      3
                      A                      A                      A
 Frequencies --     21.6001                54.7693                80.9681
 Red. masses --     11.7283                 8.9113                 6.8565
 Frc consts  --      0.0032                 0.0157                 0.0265
 IR Inten    --      1.2414                 1.5527                 0.1004

                      4                      5                      6
                      A                      A                      A
 Frequencies --     89.8741               131.4890               160.1295
 Red. masses --      7.7737                 6.2065                 8.2230
 Frc consts  --      0.0370                 0.0632                 0.1242
 IR Inten    --      4.5855                 6.7225                 0.5958

                      7                      8                      9
                      A                      A                      A
 Frequencies --    174.7329               229.9124               268.1920
 Red. masses --      5.9288                 5.3499                 3.6093
 Frc consts  --      0.1067                 0.1666                 0.1530
 IR Inten    --      1.2679                 3.1731                10.1028

                     10                     11                     12
                      A                      A                      A
 Frequencies --    302.8572               347.4160               357.3605
 Red. masses --      3.4616                 6.1428                 2.0386
 Frc consts  --      0.1871                 0.4368                 0.1534
 IR Inten    --      8.9699                 4.3901                 2.1476

                     13                     14                     15
                      A                      A                      A
 Frequencies --    381.0755               412.9735               419.8179
 Red. masses --      4.5239                 2.2469                 2.8015
 Frc consts  --      0.3871                 0.2258                 0.2909
 IR Inten    --      3.8701                16.9566                14.3860

                     16                     17                     18
                      A                      A                      A
 Frequencies --    454.3037               491.7187               577.9093
 Red. masses --      7.4314                 4.2701                 3.8654
 Frc consts  --      0.9037                 0.6083                 0.7606
 IR Inten    --     30.5143                19.1250                12.3443

                     19                     20                     21
                      A                      A                      A
 Frequencies --    585.2871               598.3154               625.6895
 Red. masses --      6.4493                 5.7028                 4.5553
 Frc consts  --      1.3017                 1.2028                 1.0507
 IR Inten    --      1.3950                 0.7485                12.9100

                     22                     23                     24
                      A                      A                      A
 Frequencies --    680.1998               690.3569               735.1081
 Red. masses --      3.0299                 4.0556                 2.0712
 Frc consts  --      0.8260                 1.1388                 0.6594
 IR Inten    --     47.9407                11.2767                18.7483

                     25                     26                     27
                      A                      A                      A
 Frequencies --    798.0229               818.5105               839.9509
 Red. masses --      2.9338                 1.5692                 1.2562
 Frc consts  --      1.1008                 0.6194                 0.5222
 IR Inten    --     14.5929                19.2628                14.7742

                     28                     29                     30
                      A                      A                      A
 Frequencies --    878.0703               930.4589               950.7905
 Red. masses --      3.7465                 3.5057                 1.6407
 Frc consts  --      1.7019                 1.7882                 0.8739
 IR Inten    --      7.2710                 2.3635                 2.2281

                     31                     32                     33
                      A                      A                      A
 Frequencies --    975.6825              1003.3511              1006.8197
 Red. masses --      1.3798                 1.2249                 2.3960
 Frc consts  --      0.7739                 0.7265                 1.4310
 IR Inten    --     20.0866                15.9876                27.1789

                     34                     35                     36
                      A                      A                      A
 Frequencies --   1032.8262              1098.3518              1142.8431
 Red. masses --      2.5535                 1.3379                 1.5096
 Frc consts  --      1.6048                 0.9509                 1.1617
 IR Inten    --      0.8853                42.9894                14.9344

                     37                     38                     39
                      A                      A                      A
 Frequencies --   1164.4151              1260.6732              1270.7058
 Red. masses --      2.2674                 1.3312                 1.1581
 Frc consts  --      1.8113                 1.2465                 1.1018
 IR Inten    --     21.5327                10.6237                 0.0700

                     40                     41                     42
                      A                      A                      A
 Frequencies --   1281.3965              1304.1635              1351.3316
 Red. masses --      1.3614                 1.4252                 1.6504
 Frc consts  --      1.3170                 1.4282                 1.7756
 IR Inten    --      7.5621                14.8403                 7.8198

                     43                     44                     45
                      A                      A                      A
 Frequencies --   1456.1945              1461.2980              1543.9386
 Red. masses --      1.5566                 1.1378                 6.8076
 Frc consts  --      1.9447                 1.4315                 9.5610
 IR Inten    --     13.1595                 8.3926                79.8818

                     46                     47                     48
                      A                      A                      A
 Frequencies --   1634.6249              1642.6744              1664.6796
 Red. masses --      4.8358                 9.1041                 8.9099
 Frc consts  --      7.6130                14.4740                14.5473
 IR Inten    --      0.3753                55.8955                79.7776

                     49                     50                     51
                      A                      A                      A
 Frequencies --   2325.8301              2592.8278              2603.7187
 Red. masses --     12.6721                 1.0386                 1.0392
 Frc consts  --     40.3881                 4.1140                 4.1509
 IR Inten    --     26.0879                71.4956                13.0152

                     52                     53                     54
                      A                      A                      A
 Frequencies --   3022.3397              3118.4686              3133.5428
 Red. masses --      1.0663                 1.0968                 1.0857
 Frc consts  --      5.7386                 6.2843                 6.2813
 IR Inten    --      8.9621                 2.6972                 4.1698

                     55                     56                     57
                      A                      A                      A
 Frequencies --   3163.9691              3175.6536              3185.7862
 Red. masses --      1.0842                 1.0897                 1.0939
 Frc consts  --      6.3948                 6.4750                 6.5414
 IR Inten    --      0.7075                 7.0421                11.9174

 - Thermochemistry -
 -------------------
 Temperature   298.150 Kelvin.  Pressure   1.00000 Atm.
 Atom     1 has atomic number  7 and mass  14.00307

 Molecular mass:   208.01289 amu.
 Principal axes and moments of inertia in atomic units:
                           1         2         3
     Eigenvalues --  1619.623385024.812596335.43842
           X            0.99986   0.01651   0.00134
           Y           -0.01649   0.99978  -0.01317
           Z           -0.00155   0.01315   0.99991
 This molecule is an asymmetric top.
 Rotational symmetry number  1.
 Warning -- assumption of classical behavior for rotation
           may cause significant error
 Rotational temperatures (Kelvin)      0.05348     0.01724     0.01367
 Rotational constants (GHZ):           1.11430     0.35917     0.28486
 Zero-point vibrational energy     381046.3 (Joules/Mol)
                                   91.07225 (Kcal/Mol)
 Warning -- explicit consideration of  20 degrees of freedom as
           vibrations may cause significant error
 Vibrational temperatures:     31.08    78.80   116.49   129.31   189.18
          (Kelvin)            230.39   251.40   330.79   385.87   435.74
                              499.85   514.16   548.28   594.18   604.02
                              653.64   707.47   831.48   842.10   860.84
                              900.23   978.66   993.27  1057.66  1148.18
                             1177.65  1208.50  1263.35  1338.72  1367.98
                             1403.79  1443.60  1448.59  1486.01  1580.28
                             1644.30  1675.33  1813.83  1828.26  1843.64
                             1876.40  1944.26  2095.14  2102.48  2221.38
                             2351.86  2363.44  2395.10  3346.35  3730.50
                             3746.17  4348.47  4486.78  4508.47  4552.25
                             4569.06  4583.64

 Zero-point correction=                           0.145133 (Hartree/Particle)
 Thermal correction to Energy=                    0.158281
 Thermal correction to Enthalpy=                  0.159225
 Thermal correction to Gibbs Free Energy=         0.103795
 Sum of electronic and zero-point Energies=          -1253.356933
 Sum of electronic and thermal Energies=             -1253.343785
 Sum of electronic and thermal Enthalpies=           -1253.342841
 Sum of electronic and thermal Free Energies=        -1253.398271

                     E (Thermal)             CV                S
                      KCal/Mol        Cal/Mol-Kelvin    Cal/Mol-Kelvin
 Total                   99.323             48.167            116.662
 Electronic               0.000              0.000              0.000
 Translational            0.889              2.981             41.901
 Rotational               0.889              2.981             32.311
 Vibrational             97.545             42.205             42.450
 Vibration     1          0.593              1.985              6.481
 Vibration     2          0.596              1.976              4.637
 Vibration     3          0.600              1.962              3.867
 Vibration     4          0.602              1.956              3.663
 Vibration     5          0.612              1.922              2.924
 Vibration     6          0.622              1.891              2.548
 Vibration     7          0.627              1.874              2.384
 Vibration     8          0.652              1.795              1.880
 Vibration     9          0.673              1.732              1.608
 Vibration    10          0.694              1.668              1.401
 Vibration    11          0.725              1.581              1.178
 Vibration    12          0.733              1.560              1.134
 Vibration    13          0.751              1.511              1.035
 Vibration    14          0.777              1.442              0.916
 Vibration    15          0.782              1.427              0.893
 Vibration    16          0.813              1.351              0.783
 Vibration    17          0.847              1.268              0.679
 Vibration    18          0.934              1.079              0.489
 Vibration    19          0.942              1.063              0.476
 Vibration    20          0.956              1.035              0.453

                           ! Non-Optimized Parameters !
 Normal termination of Gaussian 16 at Wed May 17 23:26:44 2023.
