 Gaussian 16, Revision A.03,
 Gaussian 16:  ES64L-G16RevA.03 25-Dec-2016

 -----------------------------
 # opt freq b3lyp/6-31g(2df,p)
 -----------------------------

 -------------------
 Title Card Required
 -------------------
 Symbolic Z-matrix:
 Charge =  0 Multiplicity = 1

 SCF Done:  E(RB3LYP) =  -650.029264302     A.U. after   17 cycles
 SCF Done:  E(RB3LYP) =  -650.096766625     A.U. after   14 cycles
 SCF Done:  E(RB3LYP) =  -650.189900999     A.U. after   14 cycles
 SCF Done:  E(RB3LYP) =  -650.242309314     A.U. after   13 cycles
 SCF Done:  E(RB3LYP) =  -650.276728004     A.U. after   13 cycles
 SCF Done:  E(RB3LYP) =  -650.291714059     A.U. after   12 cycles
 SCF Done:  E(RB3LYP) =  -650.296164625     A.U. after   12 cycles
 SCF Done:  E(RB3LYP) =  -650.297727326     A.U. after   12 cycles
 SCF Done:  E(RB3LYP) =  -650.298475982     A.U. after   11 cycles
 SCF Done:  E(RB3LYP) =  -650.299119199     A.U. after   12 cycles
 SCF Done:  E(RB3LYP) =  -650.306212269     A.U. after    5 cycles
 SCF Done:  E(RB3LYP) =  -650.306212247     A.U. after    4 cycles
 SCF Done:  E(RB3LYP) =  -650.306212242     A.U. after    2 cycles
 SCF Done:  E(RB3LYP) =  -650.306290366     A.U. after   12 cycles
 SCF Done:  E(RB3LYP) =  -650.306571006     A.U. after   12 cycles
 SCF Done:  E(RB3LYP) =  -650.306614156     A.U. after   10 cycles
 SCF Done:  E(RB3LYP) =  -650.306620664     A.U. after    8 cycles
 SCF Done:  E(RB3LYP) =  -650.306621428     A.U. after    7 cycles
 SCF Done:  E(RB3LYP) =  -650.306621758     A.U. after    7 cycles
 Optimization completed.
    -- Stationary point found.
 Normal termination of Gaussian 16 at Fri May 19 18:09:20 2023.

 ----------------------------------------------------------------------
 #N Geom=AllCheck Guess=TCheck SCRF=Check GenChk RB3LYP/6-31G(2df,p) Fr
 eq
 ----------------------------------------------------------------------

 Structure from the checkpoint file:  "OC12CdCCdCCdCCqdCCdC1rCNN2.chk"
 -------------------
 Title Card Required
 -------------------
 Charge =  0 Multiplicity = 1

                         Standard orientation:
 ---------------------------------------------------------------------
 Center     Atomic      Atomic             Coordinates (Angstroms)
 Number     Number       Type             X           Y           Z
 ---------------------------------------------------------------------
      1          8           0        2.428339    1.836785    0.584183
      2          6           0        1.558210    0.768398    0.244262
      3          6           0        0.112141    1.059635    0.599781
      4          6           0       -0.694634    1.900389   -0.059354
      5          6           0       -2.139583    1.924538    0.056453
      6          6           0       -3.016607    0.900694    0.223393
      7          6           0       -2.950277   -0.556322    0.373971
      8          6           0       -2.037564   -1.534623    0.162265
      9          6           0       -0.653710   -1.428816   -0.304957
     10          6           0       -0.347246   -0.806763   -1.456587
     11          6           0        0.957616   -0.320562   -1.935999
     12          6           0        1.765945    0.477656   -1.222027
     13          6           0        0.347787   -2.089878    0.657893
     14          7           0        1.751316   -1.720186    0.581155
     15          7           0        2.013362   -0.412958    1.071332
     16          1           0        2.167118    2.144638    1.459345
     17          1           0       -0.284048    0.479421    1.425666
     18          1           0       -0.269702    2.558785   -0.816811
     19          1           0       -2.601698    2.899962   -0.092517
     20          1           0       -4.053014    1.233564    0.274753
     21          1           0       -3.900305   -0.935686    0.751192
     22          1           0       -2.339543   -2.527893    0.498687
     23          1           0       -1.187684   -0.515337   -2.086887
     24          1           0        1.194249   -0.496365   -2.984419
     25          1           0        2.691050    0.860751   -1.644274
     26          1           0        0.287732   -3.176366    0.495486
     27          1           0        0.019819   -1.916070    1.687896
     28          1           0        2.061300   -1.812643   -0.387411
     29          1           0        3.022811   -0.325113    1.143849
 ---------------------------------------------------------------------

 SCF Done:  E(RB3LYP) =  -650.306621758     A.U. after    1 cycles

 The electronic state is 1-A.
 Alpha  occ. eigenvalues --  -19.14688 -14.33857 -14.33770 -10.26677 -10.21158
 Alpha  occ. eigenvalues --  -10.19380 -10.19274 -10.19253 -10.19088 -10.18882
 Alpha  occ. eigenvalues --  -10.18817 -10.18740 -10.18708 -10.18147 -10.17974
 Alpha  occ. eigenvalues --   -1.03827  -0.96161  -0.83429  -0.81877  -0.80119
 Alpha  occ. eigenvalues --   -0.77450  -0.74573  -0.71627  -0.68094  -0.65122
 Alpha  occ. eigenvalues --   -0.62116  -0.57966  -0.57113  -0.52879  -0.52316
 Alpha  occ. eigenvalues --   -0.50856  -0.48942  -0.48080  -0.47669  -0.46023
 Alpha  occ. eigenvalues --   -0.44815  -0.43068  -0.42346  -0.40271  -0.39707
 Alpha  occ. eigenvalues --   -0.39002  -0.37935  -0.37682  -0.35135  -0.34140
 Alpha  occ. eigenvalues --   -0.33341  -0.32143  -0.31035  -0.29142  -0.26733
 Alpha  occ. eigenvalues --   -0.25471  -0.22533  -0.21564  -0.20736
 Alpha virt. eigenvalues --   -0.06069  -0.00767   0.01941   0.04423   0.08623
 Alpha virt. eigenvalues --    0.09841   0.10415   0.11141   0.11835   0.12719
 Alpha virt. eigenvalues --    0.13058   0.14683   0.15185   0.15842   0.16620

 Mulliken charges:
               1
     1  O   -0.468232
     2  C    0.312332
     3  C   -0.130022
     4  C   -0.111132
     5  C   -0.096479
     6  C   -0.086147
     7  C   -0.060031
     8  C   -0.169982
     9  C    0.199141
    10  C   -0.160720
    11  C   -0.147818
    12  C   -0.087721
    13  C   -0.224983
    14  N   -0.280388
    15  N   -0.319454
    16  H    0.282465
    17  H    0.104437
    18  H    0.097626
    19  H    0.089166
    20  H    0.089790
    21  H    0.090803
    22  H    0.088892
    23  H    0.103088
    24  H    0.099421
    25  H    0.101836
    26  H    0.116713
    27  H    0.126683
    28  H    0.213187
    29  H    0.227529
 Sum of Mulliken charges =  -0.00000

 Dipole moment (field-independent basis, Debye):
    X=             -0.6399    Y=              0.0006    Z=             -0.6559  Tot=              0.9163
 Quadrupole moment (field-independent basis, Debye-Ang):
   XX=            -85.4446   YY=            -86.2349   ZZ=            -86.0862
   XY=              0.1792   XZ=             -2.2131   YZ=              2.3566

  Exact polarizability: 174.801   3.750 147.886  -6.978  -4.977 109.842
 Approx polarizability: 277.440  16.171 263.495  -6.988 -11.799 195.075

                      1                      2                      3
                      A                      A                      A
 Frequencies --     93.7785               125.5267               148.1765
 Red. masses --      3.2931                 3.7399                 3.3723
 Frc consts  --      0.0171                 0.0347                 0.0436
 IR Inten    --      0.4458                 0.6002                 1.6038

                      4                      5                      6
                      A                      A                      A
 Frequencies --    191.9716               209.9943               243.2029
 Red. masses --      3.6198                 3.7987                 3.3994
 Frc consts  --      0.0786                 0.0987                 0.1185
 IR Inten    --      0.6480                 5.3256                10.0952

                      7                      8                      9
                      A                      A                      A
 Frequencies --    253.2691               256.8127               279.1955
 Red. masses --      4.0204                 2.4406                 2.2936
 Frc consts  --      0.1519                 0.0948                 0.1053
 IR Inten    --      0.2321                 7.1555                23.3440

                     10                     11                     12
                      A                      A                      A
 Frequencies --    300.2126               354.6423               373.2566
 Red. masses --      1.9332                 3.6821                 3.7303
 Frc consts  --      0.1027                 0.2729                 0.3062
 IR Inten    --     46.1331                 0.1678                 1.1818

                     13                     14                     15
                      A                      A                      A
 Frequencies --    407.7582               423.2061               435.9741
 Red. masses --      2.9873                 2.8897                 3.9009
 Frc consts  --      0.2926                 0.3049                 0.4369
 IR Inten    --     10.7960                 8.7180                 7.3406

                     16                     17                     18
                      A                      A                      A
 Frequencies --    465.4517               499.6684               544.1314
 Red. masses --      4.0332                 2.8768                 2.7553
 Frc consts  --      0.5148                 0.4232                 0.4807
 IR Inten    --      0.1178                 4.4396                 6.2925

                     19                     20                     21
                      A                      A                      A
 Frequencies --    557.5950               595.6923               617.1015
 Red. masses --      3.3472                 3.9799                 2.7254
 Frc consts  --      0.6132                 0.8321                 0.6115
 IR Inten    --      5.1583                 0.6224                16.0487

                     22                     23                     24
                      A                      A                      A
 Frequencies --    658.2220               705.9388               721.8788
 Red. masses --      3.8964                 3.6501                 1.4887
 Frc consts  --      0.9946                 1.0717                 0.4571
 IR Inten    --      1.7352                15.3039                30.2015

                     25                     26                     27
                      A                      A                      A
 Frequencies --    739.9572               796.5126               813.2872
 Red. masses --      2.0509                 2.1731                 1.8881
 Frc consts  --      0.6616                 0.8123                 0.7358
 IR Inten    --     19.4027               113.3845                 5.7735

                     28                     29                     30
                      A                      A                      A
 Frequencies --    834.7089               840.5289               851.3705
 Red. masses --      2.1069                 2.9449                 2.6895
 Frc consts  --      0.8649                 1.2258                 1.1486
 IR Inten    --     31.0439                 9.6029                26.5153

                     31                     32                     33
                      A                      A                      A
 Frequencies --    880.3375               889.0862               907.9886
 Red. masses --      2.2956                 2.3474                 2.4297
 Frc consts  --      1.0482                 1.0933                 1.1802
 IR Inten    --     19.7988                27.8281                11.6154

                     34                     35                     36
                      A                      A                      A
 Frequencies --    921.3755               964.3804               985.6881
 Red. masses --      2.2243                 2.4848                 1.3530
 Frc consts  --      1.1125                 1.3616                 0.7745
 IR Inten    --      9.7589                22.6240                 3.8335

                     37                     38                     39
                      A                      A                      A
 Frequencies --    995.5526              1004.5595              1017.9632
 Red. masses --      1.2919                 1.2617                 1.3472
 Frc consts  --      0.7544                 0.7501                 0.8225
 IR Inten    --     13.7244                 5.9362                 1.5333

                     40                     41                     42
                      A                      A                      A
 Frequencies --   1020.3037              1044.5791              1052.4502
 Red. masses --      2.6194                 2.4154                 2.3444
 Frc consts  --      1.6066                 1.5528                 1.5300
 IR Inten    --     20.2403                28.5591                 0.7223

                     43                     44                     45
                      A                      A                      A
 Frequencies --   1085.3183              1099.1731              1120.4258
 Red. masses --      2.4744                 2.4335                 2.4209
 Frc consts  --      1.7172                 1.7323                 1.7906
 IR Inten    --    118.9406                53.7694                32.4034

                     46                     47                     48
                      A                      A                      A
 Frequencies --   1167.4971              1188.4796              1242.8010
 Red. masses --      2.9137                 1.6675                 1.7971
 Frc consts  --      2.3399                 1.3877                 1.6354
 IR Inten    --     11.0568                 2.1944                 1.7157

                     49                     50                     51
                      A                      A                      A
 Frequencies --   1273.5439              1293.4819              1303.3665
 Red. masses --      1.2110                 1.1432                 1.2598
 Frc consts  --      1.1572                 1.1269                 1.2609
 IR Inten    --      4.9584                 1.3707                 8.1456

                     52                     53                     54
                      A                      A                      A
 Frequencies --   1326.2460              1335.3799              1355.2647
 Red. masses --      1.2765                 1.1865                 1.2169
 Frc consts  --      1.3229                 1.2466                 1.3169
 IR Inten    --      2.1660                 2.3366                20.0305

                     55                     56                     57
                      A                      A                      A
 Frequencies --   1363.3037              1368.9102              1413.3863
 Red. masses --      1.4433                 1.4092                 1.7275
 Frc consts  --      1.5805                 1.5559                 2.0333
 IR Inten    --     41.1740                 5.8089                10.0390

                     58                     59                     60
                      A                      A                      A
 Frequencies --   1450.9181              1457.5365              1463.5139
 Red. masses --      1.2674                 1.1628                 1.1740
 Frc consts  --      1.5720                 1.4554                 1.4815
 IR Inten    --      5.6538                 6.5503                11.3753

                     61                     62                     63
                      A                      A                      A
 Frequencies --   1474.2511              1532.6122              1615.6286
 Red. masses --      1.4966                 1.1824                 8.5837
 Frc consts  --      1.9164                 1.6364                13.2011
 IR Inten    --      0.4425                 3.5380                 8.3470

                     64                     65                     66
                      A                      A                      A
 Frequencies --   1654.8362              1665.2859              1688.9181
 Red. masses --      5.0225                 7.4277                 6.5884
 Frc consts  --      8.1036                12.1362                11.0725
 IR Inten    --      0.1882                 2.8633                 0.3963

                     67                     68                     69
                      A                      A                      A
 Frequencies --   1694.1953              2999.1885              3071.3649
 Red. masses --      6.3327                 1.0687                 1.0924
 Frc consts  --     10.7095                 5.6639                 6.0714
 IR Inten    --      6.9164                34.1655                10.3135

                     70                     71                     72
                      A                      A                      A
 Frequencies --   3095.2351              3108.2209              3117.7377
 Red. masses --      1.0806                 1.0829                 1.0852
 Frc consts  --      6.0996                 6.1642                 6.2151
 IR Inten    --      2.2360                 6.1586                 6.4733

                     73                     74                     75
                      A                      A                      A
 Frequencies --   3120.3640              3128.1760              3132.4417
 Red. masses --      1.0871                 1.0881                 1.0855
 Frc consts  --      6.2361                 6.2733                 6.2755
 IR Inten    --     14.9834                42.1911                15.6832

                     76                     77                     78
                      A                      A                      A
 Frequencies --   3140.3991              3171.5608              3185.1678
 Red. masses --      1.0907                 1.0932                 1.0887
 Frc consts  --      6.3377                 6.4788                 6.5075
 IR Inten    --     48.1417                13.4433                 2.3020

                     79                     80                     81
                      A                      A                      A
 Frequencies --   3412.2804              3516.7010              3807.3408
 Red. masses --      1.0720                 1.0749                 1.0659
 Frc consts  --      7.3544                 7.8320                 9.1038
 IR Inten    --      4.4280                 4.6785                33.3715

 - Thermochemistry -
 -------------------
 Temperature   298.150 Kelvin.  Pressure   1.00000 Atm.
 Atom     1 has atomic number  8 and mass  15.99491

 Molecular mass:   202.11061 amu.
 Principal axes and moments of inertia in atomic units:
                           1         2         3
     Eigenvalues --  1924.401752970.455053787.89553
           X            0.99993  -0.00849  -0.00880
           Y            0.00836   0.99985  -0.01505
           Z            0.00893   0.01498   0.99985
 This molecule is an asymmetric top.
 Rotational symmetry number  1.
 Warning -- assumption of classical behavior for rotation
           may cause significant error
 Rotational temperatures (Kelvin)      0.04501     0.02916     0.02287
 Rotational constants (GHZ):           0.93782     0.60756     0.47645
 Zero-point vibrational energy     632009.5 (Joules/Mol)
                                  151.05390 (Kcal/Mol)
 Warning -- explicit consideration of  21 degrees of freedom as
           vibrations may cause significant error
 Vibrational temperatures:    134.93   180.60   213.19   276.20   302.13
          (Kelvin)            349.91   364.40   369.50   401.70   431.94
                              510.25   537.03   586.67   608.90   627.27
                              669.68   718.91   782.88   802.25   857.07
                              887.87   947.03  1015.69  1038.62  1064.63
                             1146.00  1170.14  1200.96  1209.33  1224.93
                             1266.61  1279.20  1306.39  1325.65  1387.53
                             1418.19  1432.38  1445.34  1464.62  1467.99
                             1502.92  1514.24  1561.53  1581.46  1612.04
                             1679.77  1709.96  1788.11  1832.35  1861.03
                             1875.25  1908.17  1921.31  1949.92  1961.49
                             1969.56  2033.55  2087.55  2097.07  2105.67
                             2121.12  2205.09  2324.53  2380.94  2395.97
                             2429.98  2437.57  4315.16  4419.01  4453.35
                             4472.04  4485.73  4489.51  4500.75  4506.88
                             4518.33  4563.17  4582.75  4909.51  5059.75
                             5477.91

 Zero-point correction=                           0.240720 (Hartree/Particle)
 Thermal correction to Energy=                    0.253349
 Thermal correction to Enthalpy=                  0.254293
 Thermal correction to Gibbs Free Energy=         0.203355
 Sum of electronic and zero-point Energies=           -650.065902
 Sum of electronic and thermal Energies=              -650.053273
 Sum of electronic and thermal Enthalpies=            -650.052329
 Sum of electronic and thermal Free Energies=         -650.103266

                     E (Thermal)             CV                S
                      KCal/Mol        Cal/Mol-Kelvin    Cal/Mol-Kelvin
 Total                  158.979             52.848            107.207
 Electronic               0.000              0.000              0.000
 Translational            0.889              2.981             41.815
 Rotational               0.889              2.981             31.449
 Vibrational            157.201             46.886             33.943
 Vibration     1          0.603              1.954              3.580
 Vibration     2          0.610              1.928              3.013
 Vibration     3          0.618              1.905              2.696
 Vibration     4          0.634              1.851              2.209
 Vibration     5          0.642              1.826              2.044
 Vibration     6          0.659              1.774              1.779
 Vibration     7          0.664              1.757              1.708
 Vibration     8          0.666              1.751              1.683
 Vibration     9          0.680              1.712              1.539
 Vibration    10          0.693              1.673              1.416
 Vibration    11          0.730              1.566              1.145
 Vibration    12          0.745              1.527              1.066
 Vibration    13          0.772              1.453              0.935
 Vibration    14          0.785              1.420              0.881
 Vibration    15          0.796              1.392              0.839
 Vibration    16          0.823              1.327              0.750
 Vibration    17          0.855              1.251              0.659
 Vibration    18          0.899              1.153              0.556
 Vibration    19          0.913              1.123              0.529
 Vibration    20          0.953              1.041              0.457
 Vibration    21          0.977              0.996              0.421

                           ! Non-Optimized Parameters !
 Normal termination of Gaussian 16 at Fri May 19 20:41:25 2023.
