 Gaussian 16, Revision A.03,
 Gaussian 16:  ES64L-G16RevA.03 25-Dec-2016

 -----------------------------
 # opt freq b3lyp/6-31g(2df,p)
 -----------------------------

 -------------------
 Title Card Required
 -------------------
 Symbolic Z-matrix:
 Charge =  0 Multiplicity = 1

 SCF Done:  E(RB3LYP) =  -1008.92078910     A.U. after   26 cycles
 SCF Done:  E(RB3LYP) =  -1008.97433430     A.U. after   16 cycles
 SCF Done:  E(RB3LYP) =  -1009.04086684     A.U. after   16 cycles
 SCF Done:  E(RB3LYP) =  -1009.06925741     A.U. after   16 cycles
 SCF Done:  E(RB3LYP) =  -1009.10170390     A.U. after   16 cycles
 SCF Done:  E(RB3LYP) =  -1009.13143201     A.U. after   16 cycles
 SCF Done:  E(RB3LYP) =  -1009.14456878     A.U. after   15 cycles
 SCF Done:  E(RB3LYP) =  -1009.15107107     A.U. after   14 cycles
 SCF Done:  E(RB3LYP) =  -1009.15357604     A.U. after   14 cycles
 SCF Done:  E(RB3LYP) =  -1009.15494975     A.U. after   14 cycles
 SCF Done:  E(RB3LYP) =  -1009.16483475     A.U. after   12 cycles
 SCF Done:  E(RB3LYP) =  -1009.16484478     A.U. after   13 cycles
 SCF Done:  E(RB3LYP) =  -1009.16484006     A.U. after   12 cycles
 SCF Done:  E(RB3LYP) =  -1009.16484637     A.U. after   13 cycles
 SCF Done:  E(RB3LYP) =  -1009.16484732     A.U. after   12 cycles
 SCF Done:  E(RB3LYP) =  -1009.16484819     A.U. after   12 cycles
 SCF Done:  E(RB3LYP) =  -1009.16484863     A.U. after    9 cycles
 SCF Done:  E(RB3LYP) =  -1009.16484885     A.U. after    8 cycles
 SCF Done:  E(RB3LYP) =  -1009.16484901     A.U. after    8 cycles
 Optimization completed.
    -- Stationary point found.
 Normal termination of Gaussian 16 at Sat May 20 03:31:27 2023.

 ----------------------------------------------------------------------
 #N Geom=AllCheck Guess=TCheck SCRF=Check GenChk RB3LYP/6-31G(2df,p) Fr
 eq
 ----------------------------------------------------------------------

 Structure from the checkpoint file:  "OC1d[SH]CC2dNCdCCdCC2dNCCdC1.chk"
 -------------------
 Title Card Required
 -------------------
 Charge =  0 Multiplicity = 1

                         Standard orientation:
 ---------------------------------------------------------------------
 Center     Atomic      Atomic             Coordinates (Angstroms)
 Number     Number       Type             X           Y           Z
 ---------------------------------------------------------------------
      1          8           0        3.805729   -1.164586   -0.891629
      2          6           0        2.823121   -0.438159   -0.326324
      3         16           0        1.553250   -1.161970    0.588127
      4          6           0       -1.268172    0.223878    2.359881
      5          6           0       -1.339818   -0.045842    1.040277
      6          7           0       -1.255562   -1.356977    0.595911
      7          6           0       -2.017992   -1.857174   -0.364886
      8          6           0       -3.059020   -1.283717   -1.093254
      9          6           0       -3.381817    0.090590   -1.185987
     10          6           0       -2.676848    1.161894   -0.712895
     11          6           0       -1.427551    1.077777    0.028126
     12          7           0       -0.510599    1.944752   -0.237052
     13          6           0        0.764648    1.895649    0.490114
     14          6           0        1.945246    1.925577   -0.433347
     15          6           0        2.836467    0.934992   -0.702770
     16          1           0        3.819261   -2.064656   -0.547723
     17          1           0        1.930885   -2.440215    0.365340
     18          1           0       -1.287863    1.241378    2.731221
     19          1           0       -1.247836   -0.584569    3.081532
     20          1           0       -1.830850   -2.915912   -0.558427
     21          1           0       -3.666692   -1.971026   -1.674143
     22          1           0       -4.267261    0.323518   -1.774493
     23          1           0       -2.997710    2.165523   -0.971846
     24          1           0        0.834648    1.082337    1.216693
     25          1           0        0.829135    2.822854    1.082432
     26          1           0        2.091072    2.859629   -0.969161
     27          1           0        3.668933    1.162144   -1.364053
 ---------------------------------------------------------------------

 SCF Done:  E(RB3LYP) =  -1009.16484901     A.U. after    3 cycles

 The electronic state is 1-A.
 Alpha  occ. eigenvalues --  -88.93908 -19.23191 -14.29803 -14.29786 -10.32065
 Alpha  occ. eigenvalues --  -10.22069 -10.21759 -10.21104 -10.21059 -10.19821
 Alpha  occ. eigenvalues --  -10.19384 -10.17099 -10.15853 -10.15425 -10.15119
 Alpha  occ. eigenvalues --   -8.00190  -5.96617  -5.96219  -5.95848  -1.12185
 Alpha  occ. eigenvalues --   -0.91137  -0.88393  -0.84805  -0.79675  -0.77615
 Alpha  occ. eigenvalues --   -0.75374  -0.72529  -0.68575  -0.66087  -0.60707
 Alpha  occ. eigenvalues --   -0.59132  -0.58022  -0.54955  -0.51453  -0.49989
 Alpha  occ. eigenvalues --   -0.48659  -0.48110  -0.46871  -0.45634  -0.45483
 Alpha  occ. eigenvalues --   -0.43043  -0.42313  -0.41581  -0.40552  -0.38751
 Alpha  occ. eigenvalues --   -0.37348  -0.36913  -0.35182  -0.34797  -0.32994
 Alpha  occ. eigenvalues --   -0.32343  -0.29333  -0.28299  -0.27162  -0.25461
 Alpha  occ. eigenvalues --   -0.22435  -0.20471  -0.14592
 Alpha virt. eigenvalues --   -0.11180  -0.02082  -0.00928   0.02386   0.03168
 Alpha virt. eigenvalues --    0.03993   0.05790   0.07826   0.09889   0.11877
 Alpha virt. eigenvalues --    0.13146   0.14298   0.16057   0.16240   0.16786

 Mulliken charges:
               1
     1  O   -0.367402
     2  C    0.239326
     3  S   -0.042136
     4  C   -0.395413
     5  C    0.256113
     6  N   -0.329281
     7  C   -0.010048
     8  C   -0.146927
     9  C   -0.054440
    10  C   -0.171019
    11  C    0.231790
    12  N   -0.313906
    13  C   -0.254854
    14  C   -0.015590
    15  C   -0.104511
    16  H    0.315960
    17  H    0.139071
    18  H    0.100642
    19  H    0.098239
    20  H    0.076678
    21  H    0.073441
    22  H    0.084605
    23  H    0.094100
    24  H    0.125970
    25  H    0.124693
    26  H    0.124600
    27  H    0.120298
 Sum of Mulliken charges =  -0.00000

 Dipole moment (field-independent basis, Debye):
    X=              5.6617    Y=             -2.0537    Z=             -0.2175  Tot=              6.0266
 Quadrupole moment (field-independent basis, Debye-Ang):
   XX=            -85.3913   YY=            -84.9532   ZZ=            -96.9102
   XY=             -7.0546   XZ=              1.6156   YZ=              2.6506

  Exact polarizability: 369.382  15.164 179.108   0.199  -0.112 134.086
 Approx polarizability:1641.066 163.934 377.634 -67.955 -16.361 252.589

                      1                      2                      3
                      A                      A                      A
 Frequencies --     16.1398                48.0639                75.4800
 Red. masses --      5.5146                 4.8325                 7.2973
 Frc consts  --      0.0008                 0.0066                 0.0245
 IR Inten    --      0.5042                 0.1976                 0.3255

                      4                      5                      6
                      A                      A                      A
 Frequencies --    105.1356               114.6172               158.9576
 Red. masses --      5.1193                 5.4430                 4.4740
 Frc consts  --      0.0333                 0.0421                 0.0666
 IR Inten    --      2.4258                 1.5854                 1.4483

                      7                      8                      9
                      A                      A                      A
 Frequencies --    163.8493               219.4150               246.4880
 Red. masses --      5.7213                 1.4222                 3.7806
 Frc consts  --      0.0905                 0.0403                 0.1353
 IR Inten    --      7.7318                14.0260                 7.0819

                     10                     11                     12
                      A                      A                      A
 Frequencies --    262.5640               278.5075               304.2141
 Red. masses --      3.1243                 3.7985                 2.8744
 Frc consts  --      0.1269                 0.1736                 0.1567
 IR Inten    --      1.7474                 3.6291                 2.7981

                     13                     14                     15
                      A                      A                      A
 Frequencies --    343.1173               350.7618               382.2271
 Red. masses --      4.7238                 2.6603                 1.3242
 Frc consts  --      0.3277                 0.1928                 0.1140
 IR Inten    --      5.7157                 5.8734                67.2101

                     16                     17                     18
                      A                      A                      A
 Frequencies --    397.4018               436.9536               441.4330
 Red. masses --      3.0757                 3.6563                 4.3960
 Frc consts  --      0.2862                 0.4113                 0.5047
 IR Inten    --      7.8088                 9.7965                 5.8427

                     19                     20                     21
                      A                      A                      A
 Frequencies --    462.8819               515.4489               562.7090
 Red. masses --      3.5735                 4.7239                 3.5182
 Frc consts  --      0.4511                 0.7395                 0.6563
 IR Inten    --      2.0389                 7.6686                26.1271

                     22                     23                     24
                      A                      A                      A
 Frequencies --    618.6805               644.5320               667.8550
 Red. masses --      3.3567                 4.3951                 4.7881
 Frc consts  --      0.7570                 1.0757                 1.2583
 IR Inten    --      4.8098                94.7135                 7.1553

                     25                     26                     27
                      A                      A                      A
 Frequencies --    680.0064               696.8040               712.0655
 Red. masses --      3.7987                 1.4612                 1.2622
 Frc consts  --      1.0349                 0.4180                 0.3771
 IR Inten    --      9.3741                15.9896                 4.9529

                     28                     29                     30
                      A                      A                      A
 Frequencies --    752.1670               781.7378               806.9361
 Red. masses --      2.3048                 1.5217                 1.7325
 Frc consts  --      0.7683                 0.5479                 0.6647
 IR Inten    --     67.8489                42.5097                17.1122

                     31                     32                     33
                      A                      A                      A
 Frequencies --    820.3382               859.8688               893.9766
 Red. masses --      3.6839                 1.7847                 2.5867
 Frc consts  --      1.4606                 0.7775                 1.2180
 IR Inten    --     10.2915                15.8629                 4.6802

                     34                     35                     36
                      A                      A                      A
 Frequencies --    925.9678               931.0044               951.5553
 Red. masses --      3.6416                 2.4775                 1.2549
 Frc consts  --      1.8396                 1.2652                 0.6695
 IR Inten    --     56.0802                52.8831                18.6875

                     37                     38                     39
                      A                      A                      A
 Frequencies --    956.1644               963.2335               980.5744
 Red. masses --      3.4122                 1.4929                 1.7775
 Frc consts  --      1.8380                 0.8161                 1.0070
 IR Inten    --     31.6209                 9.3301                 1.2840

                     40                     41                     42
                      A                      A                      A
 Frequencies --    983.7789               990.4289              1038.4101
 Red. masses --      1.4052                 1.5576                 2.0721
 Frc consts  --      0.8013                 0.9002                 1.3164
 IR Inten    --      7.4031                 0.5591                 2.7492

                     43                     44                     45
                      A                      A                      A
 Frequencies --   1118.3915              1142.0116              1184.0078
 Red. masses --      1.9349                 1.9059                 1.1760
 Frc consts  --      1.4259                 1.4645                 0.9713
 IR Inten    --    157.7670               158.0304                35.0670

                     46                     47                     48
                      A                      A                      A
 Frequencies --   1216.1218              1218.1364              1249.3251
 Red. masses --      1.5034                 1.5393                 1.7664
 Frc consts  --      1.3100                 1.3458                 1.6244
 IR Inten    --     46.3382                 3.8457               354.6905

                     49                     50                     51
                      A                      A                      A
 Frequencies --   1281.3641              1307.8977              1324.5914
 Red. masses --      1.9534                 2.3804                 1.3059
 Frc consts  --      1.8897                 2.3991                 1.3500
 IR Inten    --     15.7039               143.5408                11.8533

                     52                     53                     54
                      A                      A                      A
 Frequencies --   1373.6514              1393.4378              1419.2720
 Red. masses --      1.5834                 1.5710                 1.4991
 Frc consts  --      1.7604                 1.7972                 1.7791
 IR Inten    --      5.1359                40.0133                13.5785

                     55                     56                     57
                      A                      A                      A
 Frequencies --   1430.0970              1462.9571              1475.8585
 Red. masses --      1.7716                 1.8880                 2.5410
 Frc consts  --      2.1347                 2.3808                 3.2609
 IR Inten    --     22.8637               161.1814                57.0665

                     58                     59                     60
                      A                      A                      A
 Frequencies --   1492.9639              1521.8101              1601.8020
 Red. masses --      1.1297                 2.7611                 5.3331
 Frc consts  --      1.4835                 3.7675                 8.0620
 IR Inten    --     19.5131                14.3287               113.5963

                     61                     62                     63
                      A                      A                      A
 Frequencies --   1608.0455              1624.5850              1628.2494
 Red. masses --      5.1192                 4.8509                 8.9296
 Frc consts  --      7.7992                 7.5433                13.9484
 IR Inten    --     60.2015                18.9394                16.7060

                     64                     65                     66
                      A                      A                      A
 Frequencies --   2630.4000              2979.3711              3070.0794
 Red. masses --      1.0388                 1.0700                 1.0864
 Frc consts  --      4.2347                 5.5961                 6.0331
 IR Inten    --      5.7510                 7.3240                12.0196

                     67                     68                     69
                      A                      A                      A
 Frequencies --   3089.6173              3138.0638              3155.2109
 Red. masses --      1.0851                 1.0845                 1.0575
 Frc consts  --      6.1030                 6.2920                 6.2031
 IR Inten    --     61.0136                31.1101                 3.8780

                     70                     71                     72
                      A                      A                      A
 Frequencies --   3157.4706              3169.7077              3176.9390
 Red. masses --      1.0837                 1.0891                 1.0916
 Frc consts  --      6.3654                 6.4469                 6.4913
 IR Inten    --     13.4283                38.4203                 5.4494

                     73                     74                     75
                      A                      A                      A
 Frequencies --   3183.5275              3247.5722              3814.5011
 Red. masses --      1.0910                 1.1164                 1.0659
 Frc consts  --      6.5145                 6.9372                 9.1378
 IR Inten    --     16.2057                 4.2256               203.3433

 - Thermochemistry -
 -------------------
 Temperature   298.150 Kelvin.  Pressure   1.00000 Atm.
 Atom     1 has atomic number  8 and mass  15.99491

 Molecular mass:   220.06703 amu.
 Principal axes and moments of inertia in atomic units:
                           1         2         3
     Eigenvalues --  2054.124564660.391275351.81466
           X            0.99997   0.00618   0.00417
           Y           -0.00626   0.99976   0.02105
           Z           -0.00404  -0.02108   0.99977
 This molecule is an asymmetric top.
 Rotational symmetry number  1.
 Warning -- assumption of classical behavior for rotation
           may cause significant error
 Rotational temperatures (Kelvin)      0.04217     0.01859     0.01618
 Rotational constants (GHZ):           0.87859     0.38725     0.33722
 Zero-point vibrational energy     540888.5 (Joules/Mol)
                                  129.27545 (Kcal/Mol)
 Warning -- explicit consideration of  22 degrees of freedom as
           vibrations may cause significant error
 Vibrational temperatures:     23.22    69.15   108.60   151.27   164.91
          (Kelvin)            228.70   235.74   315.69   354.64   377.77
                              400.71   437.70   493.67   504.67   549.94
                              571.77   628.68   635.12   665.98   741.62
                              809.61   890.14   927.34   960.89   978.38
                             1002.55  1024.50  1082.20  1124.75  1161.00
                             1180.28  1237.16  1286.23  1332.26  1339.51
                             1369.08  1375.71  1385.88  1410.83  1415.44
                             1425.01  1494.04  1609.12  1643.10  1703.52
                             1749.73  1752.63  1797.50  1843.60  1881.77
                             1905.79  1976.38  2004.85  2042.02  2057.59
                             2104.87  2123.43  2148.04  2189.55  2304.64
                             2313.62  2337.42  2342.69  3784.56  4286.65
                             4417.16  4445.27  4514.97  4539.64  4542.90
                             4560.50  4570.91  4580.39  4672.53  5488.22

 Zero-point correction=                           0.206014 (Hartree/Particle)
 Thermal correction to Energy=                    0.220751
 Thermal correction to Enthalpy=                  0.221695
 Thermal correction to Gibbs Free Energy=         0.163314
 Sum of electronic and zero-point Energies=          -1008.958835
 Sum of electronic and thermal Energies=             -1008.944098
 Sum of electronic and thermal Enthalpies=           -1008.943154
 Sum of electronic and thermal Free Energies=        -1009.001535

                     E (Thermal)             CV                S
                      KCal/Mol        Cal/Mol-Kelvin    Cal/Mol-Kelvin
 Total                  138.523             56.283            122.872
 Electronic               0.000              0.000              0.000
 Translational            0.889              2.981             42.069
 Rotational               0.889              2.981             32.305
 Vibrational            136.746             50.322             48.499
 Vibration     1          0.593              1.986              7.060
 Vibration     2          0.595              1.978              4.895
 Vibration     3          0.599              1.965              4.005
 Vibration     4          0.605              1.945              3.357
 Vibration     5          0.608              1.937              3.189
 Vibration     6          0.621              1.893              2.562
 Vibration     7          0.623              1.887              2.505
 Vibration     8          0.647              1.812              1.964
 Vibration     9          0.661              1.769              1.756
 Vibration    10          0.670              1.741              1.645
 Vibration    11          0.679              1.713              1.543
 Vibration    12          0.695              1.666              1.394
 Vibration    13          0.722              1.589              1.198
 Vibration    14          0.728              1.574              1.163
 Vibration    15          0.752              1.508              1.030
 Vibration    16          0.764              1.476              0.972
 Vibration    17          0.797              1.390              0.836
 Vibration    18          0.801              1.380              0.822
 Vibration    19          0.821              1.332              0.758
 Vibration    20          0.870              1.216              0.621
 Vibration    21          0.918              1.112              0.518
 Vibration    22          0.979              0.992              0.419

                           ! Non-Optimized Parameters !
 Normal termination of Gaussian 16 at Sat May 20 05:29:34 2023.
