 Gaussian 16, Revision A.03,
 Gaussian 16:  ES64L-G16RevA.03 25-Dec-2016

 -----------------------------
 # opt freq b3lyp/6-31g(2df,p)
 -----------------------------

 -------------------
 Title Card Required
 -------------------
 Symbolic Z-matrix:
 Charge =  0 Multiplicity = 1

 SCF Done:  E(RB3LYP) =  -1046.93598394     A.U. after   19 cycles
 SCF Done:  E(RB3LYP) =  -1047.02517379     A.U. after   16 cycles
 SCF Done:  E(RB3LYP) =  -1047.12052016     A.U. after   15 cycles
 SCF Done:  E(RB3LYP) =  -1047.17614113     A.U. after   15 cycles
 SCF Done:  E(RB3LYP) =  -1047.19913887     A.U. after   14 cycles
 SCF Done:  E(RB3LYP) =  -1047.21574467     A.U. after   13 cycles
 SCF Done:  E(RB3LYP) =  -1047.23170037     A.U. after   13 cycles
 SCF Done:  E(RB3LYP) =  -1047.24193763     A.U. after   13 cycles
 SCF Done:  E(RB3LYP) =  -1047.25188421     A.U. after   15 cycles
 SCF Done:  E(RB3LYP) =  -1047.25645011     A.U. after   15 cycles
 SCF Done:  E(RB3LYP) =  -1047.27150341     A.U. after   10 cycles
 SCF Done:  E(RB3LYP) =  -1047.27151747     A.U. after   10 cycles
 SCF Done:  E(RB3LYP) =  -1047.27152237     A.U. after    8 cycles
 SCF Done:  E(RB3LYP) =  -1047.27152552     A.U. after    8 cycles
 SCF Done:  E(RB3LYP) =  -1047.27152697     A.U. after    8 cycles
 SCF Done:  E(RB3LYP) =  -1047.27152818     A.U. after    8 cycles
 SCF Done:  E(RB3LYP) =  -1047.27152895     A.U. after    8 cycles
 SCF Done:  E(RB3LYP) =  -1047.27152925     A.U. after    8 cycles
 SCF Done:  E(RB3LYP) =  -1047.27152934     A.U. after    6 cycles
 Optimization completed.
    -- Stationary point found.
 Normal termination of Gaussian 16 at Sat May 20 16:21:20 2023.

 ----------------------------------------------------------------------
 #N Geom=AllCheck Guess=TCheck SCRF=Check GenChk RB3LYP/6-31G(2df,p) Fr
 eq
 ----------------------------------------------------------------------

 Structure from the checkpoint file:  "OC1dCCdCC2qCdCCdCNdCS1rCCdN2.chk"
 -------------------
 Title Card Required
 -------------------
 Charge =  0 Multiplicity = 1

                         Standard orientation:
 ---------------------------------------------------------------------
 Center     Atomic      Atomic             Coordinates (Angstroms)
 Number     Number       Type             X           Y           Z
 ---------------------------------------------------------------------
      1          8           0       -3.280884   -2.179398   -0.535065
      2          6           0       -2.189252   -1.522915   -0.057209
      3          6           0       -0.914661   -1.885021   -0.341860
      4          6           0        0.264759   -1.131141    0.002025
      5          6           0        1.517474   -1.304790   -0.457166
      6          6           0        2.602919   -0.256494   -0.213930
      7          6           0        2.031608    1.014334   -0.783154
      8          6           0        1.285936    1.843787   -0.033816
      9          6           0        0.064223    2.420099   -0.568885
     10          6           0       -1.059013    2.262675    0.160615
     11          7           0       -2.300311    2.122163   -0.450862
     12          6           0       -3.042994    1.131135   -0.178948
     13         16           0       -2.649492   -0.192060    1.043047
     14          6           0        4.073284   -0.668860   -0.572157
     15          6           0        4.234276   -0.482796    0.910732
     16          7           0        3.039642   -0.140865    1.233159
     17          1           0       -2.988872   -2.867448   -1.148435
     18          1           0       -0.782866   -2.770595   -0.966250
     19          1           0        0.076249   -0.272834    0.635663
     20          1           0        1.766883   -2.136782   -1.112411
     21          1           0        1.917245    1.015661   -1.866709
     22          1           0        1.362349    1.763442    1.048419
     23          1           0       -0.019040    2.594768   -1.638944
     24          1           0       -0.988696    2.022369    1.219175
     25          1           0       -3.998784    1.010754   -0.683358
     26          1           0        4.619763    0.031208   -1.211007
     27          1           0        4.209142   -1.686870   -0.950286
     28          1           0        5.078896   -0.584681    1.592339
 ---------------------------------------------------------------------

 SCF Done:  E(RB3LYP) =  -1047.27152934     A.U. after    1 cycles

 The electronic state is 1-A.
 Alpha  occ. eigenvalues --  -88.88452 -19.18686 -14.35024 -14.32533 -10.27945
 Alpha  occ. eigenvalues --  -10.25628 -10.23429 -10.22898 -10.21387 -10.19795
 Alpha  occ. eigenvalues --  -10.19741 -10.19575 -10.19006 -10.18833 -10.18805
 Alpha  occ. eigenvalues --  -10.18722  -7.94697  -5.91183  -5.90859  -5.90223
 Alpha  occ. eigenvalues --   -1.07554  -0.96012  -0.94548  -0.82496  -0.81530
 Alpha  occ. eigenvalues --   -0.77379  -0.76025  -0.71556  -0.70528  -0.67191
 Alpha  occ. eigenvalues --   -0.61955  -0.61125  -0.57517  -0.56203  -0.54872
 Alpha  occ. eigenvalues --   -0.53040  -0.49584  -0.49314  -0.47995  -0.47703
 Alpha  occ. eigenvalues --   -0.46721  -0.44400  -0.43236  -0.42924  -0.41499
 Alpha  occ. eigenvalues --   -0.39954  -0.39153  -0.38817  -0.37655  -0.36900
 Alpha  occ. eigenvalues --   -0.35510  -0.34751  -0.33111  -0.30729  -0.30206
 Alpha  occ. eigenvalues --   -0.29548  -0.27025  -0.25915  -0.24791  -0.21891
 Alpha  occ. eigenvalues --   -0.19674
 Alpha virt. eigenvalues --   -0.05173  -0.04148  -0.00512   0.01236   0.02728
 Alpha virt. eigenvalues --    0.04326   0.05700   0.08030   0.09488   0.09953
 Alpha virt. eigenvalues --    0.11518   0.12455   0.12752   0.13131   0.14738

 Mulliken charges:
               1
     1  O   -0.406949
     2  C    0.326223
     3  C   -0.241001
     4  C    0.019876
     5  C   -0.195481
     6  C    0.264358
     7  C   -0.133993
     8  C   -0.102844
     9  C   -0.115499
    10  C   -0.005300
    11  N   -0.135449
    12  C   -0.046961
    13  S   -0.179951
    14  C   -0.382218
    15  C    0.014401
    16  N   -0.202377
    17  H    0.299398
    18  H    0.078925
    19  H    0.118554
    20  H    0.083416
    21  H    0.090302
    22  H    0.122020
    23  H    0.105349
    24  H    0.127362
    25  H    0.146043
    26  H    0.120843
    27  H    0.116020
    28  H    0.114932
 Sum of Mulliken charges =  -0.00000

 Dipole moment (field-independent basis, Debye):
    X=              1.7772    Y=             -2.4954    Z=             -2.8321  Tot=              4.1721
 Quadrupole moment (field-independent basis, Debye-Ang):
   XX=            -92.8685   YY=            -96.3624   ZZ=            -99.1071
   XY=              0.3222   XZ=              0.1886   YZ=              6.7006

  Exact polarizability: 260.256  -5.587 149.330 -10.714   5.150 117.189
 Approx polarizability: 449.162 -13.404 249.261 -44.432  11.705 209.023

                      1                      2                      3
                      A                      A                      A
 Frequencies --     53.4772                68.8740                93.8535
 Red. masses --      5.1012                 5.4875                 5.8381
 Frc consts  --      0.0086                 0.0153                 0.0303
 IR Inten    --      0.2341                 1.1341                 3.6427

                      4                      5                      6
                      A                      A                      A
 Frequencies --    119.3421               144.9405               150.2758
 Red. masses --      4.7325                 4.1848                 4.9875
 Frc consts  --      0.0397                 0.0518                 0.0664
 IR Inten    --      0.4329                 1.7963                 0.6536

                      7                      8                      9
                      A                      A                      A
 Frequencies --    175.7086               214.0675               234.2726
 Red. masses --      4.0966                 2.5807                 2.8180
 Frc consts  --      0.0745                 0.0697                 0.0911
 IR Inten    --      2.9463                 4.7991                 0.9459

                     10                     11                     12
                      A                      A                      A
 Frequencies --    243.6959               293.5153               302.0814
 Red. masses --      2.5081                 2.9995                 4.2631
 Frc consts  --      0.0878                 0.1523                 0.2292
 IR Inten    --      1.2015                 3.3991                 4.2856

                     13                     14                     15
                      A                      A                      A
 Frequencies --    315.5512               325.6203               372.4370
 Red. masses --      3.6144                 3.1973                 3.5917
 Frc consts  --      0.2120                 0.1997                 0.2935
 IR Inten    --      3.9134                 0.8940                 2.5626

                     16                     17                     18
                      A                      A                      A
 Frequencies --    407.6798               418.3300               442.8383
 Red. masses --      3.6898                 1.7031                 3.2498
 Frc consts  --      0.3613                 0.1756                 0.3755
 IR Inten    --     15.5939                57.9392                22.8087

                     19                     20                     21
                      A                      A                      A
 Frequencies --    466.8081               503.8447               511.3909
 Red. masses --      4.3614                 5.3947                 4.7212
 Frc consts  --      0.5600                 0.8069                 0.7275
 IR Inten    --     10.3393                 2.9364                 1.2892

                     22                     23                     24
                      A                      A                      A
 Frequencies --    556.6177               566.8858               594.0201
 Red. masses --      3.9053                 4.6797                 4.5839
 Frc consts  --      0.7129                 0.8861                 0.9530
 IR Inten    --      5.2966                 5.0499                 1.6311

                     25                     26                     27
                      A                      A                      A
 Frequencies --    616.9606               668.5987               719.7312
 Red. masses --      3.8779                 3.7870                 5.2021
 Frc consts  --      0.8697                 0.9974                 1.5877
 IR Inten    --      9.1507                23.3761                41.1979

                     28                     29                     30
                      A                      A                      A
 Frequencies --    745.7865               813.2781               827.8900
 Red. masses --      3.6707                 1.4835                 1.6263
 Frc consts  --      1.2029                 0.5781                 0.6567
 IR Inten    --      5.9922                18.7175                19.5074

                     31                     32                     33
                      A                      A                      A
 Frequencies --    835.1420               856.8009               882.0042
 Red. masses --      1.5779                 1.7353                 1.8573
 Frc consts  --      0.6484                 0.7506                 0.8513
 IR Inten    --     27.8527                94.7542                40.8174

                     34                     35                     36
                      A                      A                      A
 Frequencies --    887.7422               891.1084               928.2576
 Red. masses --      1.7134                 3.3401                 1.4085
 Frc consts  --      0.7956                 1.5627                 0.7151
 IR Inten    --     32.9922                13.4867                 5.2431

                     37                     38                     39
                      A                      A                      A
 Frequencies --    974.7706               979.3384               996.0782
 Red. masses --      1.3317                 2.3466                 3.2733
 Frc consts  --      0.7455                 1.3260                 1.9135
 IR Inten    --     12.5577                 8.8646                 8.7856

                     40                     41                     42
                      A                      A                      A
 Frequencies --   1016.9133              1056.2846              1083.5076
 Red. masses --      1.1349                 1.1772                 2.2909
 Frc consts  --      0.6915                 0.7738                 1.5846
 IR Inten    --     25.1978                41.3935                 2.8641

                     43                     44                     45
                      A                      A                      A
 Frequencies --   1088.0217              1130.9376              1148.5179
 Red. masses --      2.5188                 3.3969                 2.5322
 Frc consts  --      1.7568                 2.5598                 1.9680
 IR Inten    --      6.0375               289.2112                 8.6328

                     46                     47                     48
                      A                      A                      A
 Frequencies --   1159.7959              1192.5432              1201.9786
 Red. masses --      3.0748                 2.5056                 2.7998
 Frc consts  --      2.4369                 2.0995                 2.3832
 IR Inten    --     25.8913                18.9843                13.5525

                     49                     50                     51
                      A                      A                      A
 Frequencies --   1220.6547              1235.3733              1244.9080
 Red. masses --      1.1958                 1.3205                 1.8304
 Frc consts  --      1.0498                 1.1874                 1.6713
 IR Inten    --      0.4929                 2.9209                19.8808

                     52                     53                     54
                      A                      A                      A
 Frequencies --   1288.2247              1302.6166              1318.8800
 Red. masses --      1.4437                 1.5116                 1.2288
 Frc consts  --      1.4116                 1.5112                 1.2593
 IR Inten    --     22.2812                 3.0265                53.7974

                     55                     56                     57
                      A                      A                      A
 Frequencies --   1322.5156              1330.7590              1333.6882
 Red. masses --      1.5356                 1.3338                 1.3331
 Frc consts  --      1.5824                 1.3917                 1.3971
 IR Inten    --     14.2095                 4.9347                 4.5347

                     58                     59                     60
                      A                      A                      A
 Frequencies --   1358.5752              1386.8535              1459.3689
 Red. masses --      1.3355                 1.5511                 1.1330
 Frc consts  --      1.4523                 1.7577                 1.4218
 IR Inten    --      5.7844                51.0860                 9.6846

                     61                     62                     63
                      A                      A                      A
 Frequencies --   1614.8675              1619.3781              1636.4877
 Red. masses --      7.7884                 6.9028                 6.5324
 Frc consts  --     11.9667                10.6653                10.3074
 IR Inten    --    109.1013                34.7853                19.4924

                     64                     65                     66
                      A                      A                      A
 Frequencies --   1655.6114              1667.3134              1668.5130
 Red. masses --      7.8212                 5.7380                 5.7667
 Frc consts  --     12.6310                 9.3983                 9.4588
 IR Inten    --     18.2293                55.4789                19.0698

                     67                     68                     69
                      A                      A                      A
 Frequencies --   3048.4973              3102.8135              3105.6390
 Red. masses --      1.0573                 1.1067                 1.0865
 Frc consts  --      5.7893                 6.2777                 6.1743
 IR Inten    --     22.2469                 9.8228                24.4174

                     70                     71                     72
                      A                      A                      A
 Frequencies --   3129.1522              3132.8261              3142.9435
 Red. masses --      1.0885                 1.0956                 1.0877
 Frc consts  --      6.2793                 6.3354                 6.3303
 IR Inten    --     19.1399                54.6875                 6.4165

                     73                     74                     75
                      A                      A                      A
 Frequencies --   3144.8684              3154.1104              3156.0884
 Red. masses --      1.0895                 1.0882                 1.0912
 Frc consts  --      6.3487                 6.3786                 6.4038
 IR Inten    --     18.4560                 2.3979                11.0681

                     76                     77                     78
                      A                      A                      A
 Frequencies --   3165.4809              3207.0508              3758.7418
 Red. masses --      1.0878                 1.0850                 1.0646
 Frc consts  --      6.4223                 6.5750                 8.8616
 IR Inten    --      9.9454                 2.0734                33.1089

 - Thermochemistry -
 -------------------
 Temperature   298.150 Kelvin.  Pressure   1.00000 Atm.
 Atom     1 has atomic number  8 and mass  15.99491

 Molecular mass:   232.06703 amu.
 Principal axes and moments of inertia in atomic units:
                           1         2         3
     Eigenvalues --  2170.467595706.013367078.07765
           X            0.99999  -0.00475  -0.00015
           Y            0.00475   0.99986   0.01634
           Z            0.00007  -0.01634   0.99987
 This molecule is an asymmetric top.
 Rotational symmetry number  1.
 Warning -- assumption of classical behavior for rotation
           may cause significant error
 Rotational temperatures (Kelvin)      0.03991     0.01518     0.01224
 Rotational constants (GHZ):           0.83150     0.31629     0.25498
 Zero-point vibrational energy     563386.8 (Joules/Mol)
                                  134.65268 (Kcal/Mol)
 Warning -- explicit consideration of  25 degrees of freedom as
           vibrations may cause significant error
 Vibrational temperatures:     76.94    99.09   135.03   171.71   208.54
          (Kelvin)            216.21   252.81   308.00   337.07   350.62
                              422.30   434.63   454.01   468.50   535.85
                              586.56   601.88   637.15   671.63   724.92
                              735.78   800.85   815.62   854.66   887.67
                              961.96  1035.53  1073.02  1170.13  1191.15
                             1201.58  1232.75  1269.01  1277.26  1282.11
                             1335.56  1402.48  1409.05  1433.13  1463.11
                             1519.76  1558.93  1565.42  1627.17  1652.46
                             1668.69  1715.80  1729.38  1756.25  1777.43
                             1791.14  1853.47  1874.17  1897.57  1902.80
                             1914.67  1918.88  1954.69  1995.37  2099.71
                             2323.43  2329.92  2354.54  2382.06  2398.89
                             2400.62  4386.11  4464.26  4468.32  4502.15
                             4507.44  4521.99  4524.76  4538.06  4540.91
                             4554.42  4614.23  5407.99

 Zero-point correction=                           0.214583 (Hartree/Particle)
 Thermal correction to Energy=                    0.229424
 Thermal correction to Enthalpy=                  0.230368
 Thermal correction to Gibbs Free Energy=         0.173094
 Sum of electronic and zero-point Energies=          -1047.056947
 Sum of electronic and thermal Energies=             -1047.042105
 Sum of electronic and thermal Enthalpies=           -1047.041161
 Sum of electronic and thermal Free Energies=        -1047.098435

                     E (Thermal)             CV                S
                      KCal/Mol        Cal/Mol-Kelvin    Cal/Mol-Kelvin
 Total                  143.966             57.742            120.544
 Electronic               0.000              0.000              0.000
 Translational            0.889              2.981             42.227
 Rotational               0.889              2.981             32.838
 Vibrational            142.188             51.780             45.478
 Vibration     1          0.596              1.976              4.684
 Vibration     2          0.598              1.969              4.185
 Vibration     3          0.603              1.954              3.578
 Vibration     4          0.609              1.933              3.111
 Vibration     5          0.616              1.908              2.738
 Vibration     6          0.618              1.902              2.669
 Vibration     7          0.628              1.872              2.374
 Vibration     8          0.644              1.820              2.009
 Vibration     9          0.654              1.788              1.846
 Vibration    10          0.659              1.773              1.776
 Vibration    11          0.688              1.686              1.454
 Vibration    12          0.694              1.670              1.405
 Vibration    13          0.703              1.644              1.333
 Vibration    14          0.710              1.624              1.282
 Vibration    15          0.744              1.529              1.070
 Vibration    16          0.772              1.454              0.935
 Vibration    17          0.781              1.430              0.898
 Vibration    18          0.802              1.377              0.818
 Vibration    19          0.824              1.324              0.747
 Vibration    20          0.859              1.241              0.649
 Vibration    21          0.866              1.225              0.630
 Vibration    22          0.912              1.125              0.531
 Vibration    23          0.923              1.103              0.510
 Vibration    24          0.952              1.045              0.460
 Vibration    25          0.977              0.996              0.421

 Optimization completed.
    -- Stationary point found.
 Normal termination of Gaussian 16 at Sat May 20 18:37:50 2023.
