 Gaussian 16, Revision A.03,
 Gaussian 16:  ES64L-G16RevA.03 25-Dec-2016

 -----------------------------
 # opt freq b3lyp/6-31g(2df,p)
 -----------------------------

 -------------------
 Title Card Required
 -------------------
 Symbolic Z-matrix:
 Charge =  0 Multiplicity = 1

 SCF Done:  E(RB3LYP) =  -1121.17559007     A.U. after   19 cycles
 SCF Done:  E(RB3LYP) =  -1121.22215968     A.U. after   15 cycles
 SCF Done:  E(RB3LYP) =  -1121.25906286     A.U. after   15 cycles
 SCF Done:  E(RB3LYP) =  -1121.27738708     A.U. after   15 cycles
 SCF Done:  E(RB3LYP) =  -1121.29472837     A.U. after   16 cycles
 SCF Done:  E(RB3LYP) =  -1121.29887572     A.U. after   13 cycles
 SCF Done:  E(RB3LYP) =  -1121.29997562     A.U. after   13 cycles
 SCF Done:  E(RB3LYP) =  -1121.30020154     A.U. after   13 cycles
 SCF Done:  E(RB3LYP) =  -1121.30050441     A.U. after   11 cycles
 SCF Done:  E(RB3LYP) =  -1121.30052539     A.U. after    9 cycles
 SCF Done:  E(RB3LYP) =  -1121.30053275     A.U. after    9 cycles
 SCF Done:  E(RB3LYP) =  -1121.30053401     A.U. after    8 cycles
 SCF Done:  E(RB3LYP) =  -1121.30053426     A.U. after    7 cycles
 Optimization completed.
    -- Stationary point found.
 Normal termination of Gaussian 16 at Thu May 18 22:07:53 2023.

 ----------------------------------------------------------------------
 #N Geom=AllCheck Guess=TCheck SCRF=Check GenChk RB3LYP/6-31G(2df,p) Fr
 eq
 ----------------------------------------------------------------------

 Structure from the checkpoint file:  "OC1dC2ONdCqCdC1rC1CdCCdCC1dNCS2.chk"
 -------------------
 Title Card Required
 -------------------
 Charge =  0 Multiplicity = 1

                         Standard orientation:
 ---------------------------------------------------------------------
 Center     Atomic      Atomic             Coordinates (Angstroms)
 Number     Number       Type             X           Y           Z
 ---------------------------------------------------------------------
      1          8           0       -1.906231   -0.740775   -2.215810
      2          6           0       -1.594974   -1.113882   -0.958803
      3          6           0       -2.067056   -0.519901    0.168612
      4          8           0       -1.784946   -1.152714    1.369739
      5          7           0       -0.568187   -0.515962    1.813589
      6          6           0        0.421992   -0.839277    1.055537
      7          6           0        0.448410   -1.907243    0.049456
      8          6           0       -0.527677   -2.102233   -0.859003
      9          6           0        1.511589    0.236690    1.059640
     10          6           0        2.914315   -0.300396    1.095456
     11          6           0        3.738783   -0.228338    0.043441
     12          6           0        3.315125    0.413619   -1.191087
     13          6           0        2.113902    1.014030   -1.305703
     14          6           0        1.151455    1.079338   -0.209335
     15          7           0        0.088631    1.772743   -0.436213
     16          6           0       -0.956148    2.047919    0.505878
     17         16           0       -2.596211    1.165217    0.151248
     18          1           0       -2.448034    0.063522   -2.150346
     19          1           0        1.359592   -2.496723    0.010396
     20          1           0       -0.418928   -2.843245   -1.645336
     21          1           0        1.324899    0.836832    1.956599
     22          1           0        3.224712   -0.770489    2.023811
     23          1           0        4.741956   -0.638275    0.098488
     24          1           0        4.001926    0.418003   -2.031620
     25          1           0        1.809581    1.514844   -2.217597
     26          1           0       -1.252615    3.095112    0.382466
     27          1           0       -0.735701    1.845435    1.555581
 ---------------------------------------------------------------------

 SCF Done:  E(RB3LYP) =  -1121.30053426     A.U. after    1 cycles

 The electronic state is 1-A.
 Alpha  occ. eigenvalues --  -88.88010 -19.18221 -19.17809 -14.38137 -14.33003
 Alpha  occ. eigenvalues --  -10.25999 -10.25117 -10.25083 -10.24377 -10.23799
 Alpha  occ. eigenvalues --  -10.22921 -10.21970 -10.21844 -10.21111 -10.21090
 Alpha  occ. eigenvalues --  -10.20750 -10.19977  -7.94174  -5.90661  -5.90306
 Alpha  occ. eigenvalues --   -5.89741  -1.09055  -1.06986  -0.93479  -0.89416
 Alpha  occ. eigenvalues --   -0.84823  -0.82856  -0.78494  -0.76738  -0.74728
 Alpha  occ. eigenvalues --   -0.71142  -0.67239  -0.65559  -0.61724  -0.58701
 Alpha  occ. eigenvalues --   -0.57920  -0.56109  -0.52540  -0.52046  -0.49849
 Alpha  occ. eigenvalues --   -0.49388  -0.47916  -0.46703  -0.45527  -0.44709
 Alpha  occ. eigenvalues --   -0.43757  -0.43599  -0.42115  -0.41598  -0.40268
 Alpha  occ. eigenvalues --   -0.39008  -0.37833  -0.36818  -0.35266  -0.34905
 Alpha  occ. eigenvalues --   -0.32883  -0.32299  -0.30593  -0.28561  -0.26016
 Alpha  occ. eigenvalues --   -0.25665  -0.23750  -0.23290  -0.21646
 Alpha virt. eigenvalues --   -0.07821  -0.06261  -0.02362   0.00701   0.04644
 Alpha virt. eigenvalues --    0.05616   0.08431   0.08574   0.09725   0.09954
 Alpha virt. eigenvalues --    0.10392   0.11454   0.11930   0.13138   0.14696

 Mulliken charges:
               1
     1  O   -0.411477
     2  C    0.316193
     3  C    0.067468
     4  O   -0.257377
     5  N   -0.173762
     6  C    0.265680
     7  C   -0.108212
     8  C   -0.124702
     9  C   -0.247875
    10  C   -0.105047
    11  C   -0.090375
    12  C   -0.095621
    13  C   -0.105015
    14  C    0.290049
    15  N   -0.265014
    16  C   -0.188833
    17  S   -0.197084
    18  H    0.311670
    19  H    0.124456
    20  H    0.124452
    21  H    0.134047
    22  H    0.117124
    23  H    0.106868
    24  H    0.110347
    25  H    0.115449
    26  H    0.136392
    27  H    0.150198
 Sum of Mulliken charges =  -0.00000

 Dipole moment (field-independent basis, Debye):
    X=              4.3717    Y=             -0.5434    Z=             -1.0029  Tot=              4.5181
 Quadrupole moment (field-independent basis, Debye-Ang):
   XX=            -98.2703   YY=           -100.4246   ZZ=           -105.4334
   XY=             -4.1172   XZ=              4.3072   YZ=              2.8429

  Exact polarizability: 205.404 -23.961 135.284  -1.602   3.370 138.468
 Approx polarizability: 353.700 -56.889 239.166  -4.080   7.725 274.088

                      1                      2                      3
                      A                      A                      A
 Frequencies --     68.2151                89.0061               123.4395
 Red. masses --      5.6009                 5.1409                 5.4747
 Frc consts  --      0.0154                 0.0240                 0.0491
 IR Inten    --      0.3760                 0.7284                 0.5306

                      4                      5                      6
                      A                      A                      A
 Frequencies --    154.4557               190.2267               225.9642
 Red. masses --      4.4471                 7.2758                 6.4624
 Frc consts  --      0.0625                 0.1551                 0.1944
 IR Inten    --      1.2225                 0.8909                 1.8085

                      7                      8                      9
                      A                      A                      A
 Frequencies --    256.1110               274.8587               309.3693
 Red. masses --      6.8516                 3.4027                 7.0500
 Frc consts  --      0.2648                 0.1515                 0.3976
 IR Inten    --      0.3535                 2.0543                 3.9581

                     10                     11                     12
                      A                      A                      A
 Frequencies --    328.8117               340.0598               355.6245
 Red. masses --      3.4888                 5.0979                 5.3678
 Frc consts  --      0.2222                 0.3473                 0.4000
 IR Inten    --      5.6756                 7.9498                 4.3530

                     13                     14                     15
                      A                      A                      A
 Frequencies --    378.2469               405.1735               487.6190
 Red. masses --      7.1363                 7.4627                 3.2161
 Frc consts  --      0.6016                 0.7218                 0.4505
 IR Inten    --      2.4520                 6.8629                 9.5207

                     16                     17                     18
                      A                      A                      A
 Frequencies --    495.1129               502.3537               520.5944
 Red. masses --      5.2998                 3.2254                 1.8235
 Frc consts  --      0.7654                 0.4796                 0.2912
 IR Inten    --      5.3092                31.6480                38.8430

                     19                     20                     21
                      A                      A                      A
 Frequencies --    529.4641               557.4678               572.9150
 Red. masses --      4.5502                 3.9475                 3.7041
 Frc consts  --      0.7515                 0.7228                 0.7163
 IR Inten    --     11.0038                 4.3062                 1.5495

                     22                     23                     24
                      A                      A                      A
 Frequencies --    590.1886               604.2312               629.5670
 Red. masses --      5.1092                 3.2851                 4.4720
 Frc consts  --      1.0485                 0.7067                 1.0443
 IR Inten    --     13.8020                46.2232                 3.3941

                     25                     26                     27
                      A                      A                      A
 Frequencies --    648.7274               701.7474               719.4145
 Red. masses --      5.0991                 6.9240                 5.0458
 Frc consts  --      1.2644                 2.0090                 1.5386
 IR Inten    --      5.3155                 4.6437                 1.6202

                     28                     29                     30
                      A                      A                      A
 Frequencies --    741.4651               763.6824               787.1506
 Red. masses --      2.9836                 2.8071                 2.2500
 Frc consts  --      0.9664                 0.9646                 0.8214
 IR Inten    --     30.2748                11.9918                23.5372

                     31                     32                     33
                      A                      A                      A
 Frequencies --    817.2575               854.1375               869.1433
 Red. masses --      2.0614                 5.3826                 4.7571
 Frc consts  --      0.8112                 2.3136                 2.1173
 IR Inten    --     30.5725                 8.3057                 2.5206

                     34                     35                     36
                      A                      A                      A
 Frequencies --    882.4085               938.1234               960.5073
 Red. masses --      2.2421                 1.7511                 3.3033
 Frc consts  --      1.0286                 0.9080                 1.7955
 IR Inten    --      4.8326                 0.7890                 6.1024

                     37                     38                     39
                      A                      A                      A
 Frequencies --    972.6456               987.4769               989.6405
 Red. masses --      3.1594                 1.3350                 1.3489
 Frc consts  --      1.7610                 0.7670                 0.7783
 IR Inten    --      0.9726                 1.6041                 3.7116

                     40                     41                     42
                      A                      A                      A
 Frequencies --   1001.2815              1013.4097              1035.5952
 Red. masses --      3.4924                 1.2920                 4.6080
 Frc consts  --      2.0629                 0.7818                 2.9117
 IR Inten    --     10.5539                 0.3586                21.9997

                     43                     44                     45
                      A                      A                      A
 Frequencies --   1047.1717              1098.1928              1137.9048
 Red. masses --      2.5146                 5.0451                 1.9621
 Frc consts  --      1.6247                 3.5849                 1.4968
 IR Inten    --      1.5405                14.4338                15.4542

                     46                     47                     48
                      A                      A                      A
 Frequencies --   1171.5180              1190.7115              1196.8694
 Red. masses --      2.3082                 1.1324                 1.1508
 Frc consts  --      1.8665                 0.9459                 0.9713
 IR Inten    --      2.4858                11.0897                 6.4445

                     49                     50                     51
                      A                      A                      A
 Frequencies --   1223.1846              1230.2484              1235.4989
 Red. masses --      1.2439                 2.0454                 1.2732
 Frc consts  --      1.0965                 1.8240                 1.1451
 IR Inten    --      4.8341               215.0036                21.2083

                     52                     53                     54
                      A                      A                      A
 Frequencies --   1250.9122              1275.4333              1311.6647
 Red. masses --      1.6020                 1.3669                 1.4875
 Frc consts  --      1.4770                 1.3101                 1.5078
 IR Inten    --     21.4863                 9.2218                 2.9267

                     55                     56                     57
                      A                      A                      A
 Frequencies --   1362.6004              1399.7521              1444.5670
 Red. masses --      1.6314                 1.5680                 1.8320
 Frc consts  --      1.7846                 1.8101                 2.2524
 IR Inten    --      9.1701                 0.0937                 3.1505

                     58                     59                     60
                      A                      A                      A
 Frequencies --   1451.3386              1482.3929              1579.8305
 Red. masses --      2.3837                 1.1010                 9.1584
 Frc consts  --      2.9582                 1.4254                13.4676
 IR Inten    --     26.5963                17.9631                33.0644

                     61                     62                     63
                      A                      A                      A
 Frequencies --   1606.0950              1620.9242              1634.5199
 Red. masses --      8.0125                 8.2139                 9.4993
 Frc consts  --     12.1776                12.7152                14.9528
 IR Inten    --     41.2031                24.0020                30.2444

                     64                     65                     66
                      A                      A                      A
 Frequencies --   1657.3903              1704.8487              3039.1467
 Red. masses --      6.6005                 5.7808                 1.0569
 Frc consts  --     10.6826                 9.8995                 5.7517
 IR Inten    --     32.6456                 5.6834                22.9588

                     67                     68                     69
                      A                      A                      A
 Frequencies --   3053.2267              3108.3128              3166.4420
 Red. masses --      1.0819                 1.1066                 1.0841
 Frc consts  --      5.9422                 6.2991                 6.4041
 IR Inten    --      1.9444                 3.6908                 0.3146

                     70                     71                     72
                      A                      A                      A
 Frequencies --   3168.6725              3176.9969              3185.7988
 Red. masses --      1.0836                 1.0883                 1.0957
 Frc consts  --      6.4103                 6.4721                 6.5518
 IR Inten    --      3.3116                10.3070                 7.9105

                     73                     74                     75
                      A                      A                      A
 Frequencies --   3192.2390              3206.2014              3672.1181
 Red. masses --      1.0958                 1.0960                 1.0639
 Frc consts  --      6.5790                 6.6381                 8.4526
 IR Inten    --     19.4011                 7.7983                44.8126

 - Thermochemistry -
 -------------------
 Temperature   298.150 Kelvin.  Pressure   1.00000 Atm.
 Atom     1 has atomic number  8 and mass  15.99491

 Molecular mass:   246.04630 amu.
 Principal axes and moments of inertia in atomic units:
                           1         2         3
     Eigenvalues --  2302.682994570.557914820.62175
           X            0.99993  -0.01202   0.00172
           Y            0.01189   0.99801   0.06190
           Z           -0.00246  -0.06187   0.99808
 This molecule is an asymmetric top.
 Rotational symmetry number  1.
 Warning -- assumption of classical behavior for rotation
           may cause significant error
 Rotational temperatures (Kelvin)      0.03761     0.01895     0.01797
 Rotational constants (GHZ):           0.78376     0.39486     0.37438
 Zero-point vibrational energy     526091.4 (Joules/Mol)
                                  125.73887 (Kcal/Mol)
 Warning -- explicit consideration of  23 degrees of freedom as
           vibrations may cause significant error
 Vibrational temperatures:     98.15   128.06   177.60   222.23   273.69
          (Kelvin)            325.11   368.49   395.46   445.11   473.09
                              489.27   511.66   544.21   582.95   701.58
                              712.36   722.77   749.02   761.78   802.07
                              824.30   849.15   869.35   905.81   933.37
                             1009.66  1035.08  1066.80  1098.77  1132.53
                             1175.85  1228.91  1250.50  1269.59  1349.75
                             1381.96  1399.42  1420.76  1423.87  1440.62
                             1458.07  1489.99  1506.65  1580.05  1637.19
                             1685.55  1713.17  1722.03  1759.89  1770.05
                             1777.61  1799.78  1835.06  1887.19  1960.48
                             2013.93  2078.41  2088.15  2132.83  2273.02
                             2310.81  2332.15  2351.71  2384.62  2452.90
                             4372.65  4392.91  4472.17  4555.80  4559.01
                             4570.99  4583.65  4592.92  4613.01  5283.36

 Zero-point correction=                           0.200378 (Hartree/Particle)
 Thermal correction to Energy=                    0.213649
 Thermal correction to Enthalpy=                  0.214593
 Thermal correction to Gibbs Free Energy=         0.161405
 Sum of electronic and zero-point Energies=          -1121.100157
 Sum of electronic and thermal Energies=             -1121.086885
 Sum of electronic and thermal Enthalpies=           -1121.085941
 Sum of electronic and thermal Free Energies=        -1121.139129

                     E (Thermal)             CV                S
                      KCal/Mol        Cal/Mol-Kelvin    Cal/Mol-Kelvin
 Total                  134.067             55.067            111.944
 Electronic               0.000              0.000              0.000
 Translational            0.889              2.981             42.402
 Rotational               0.889              2.981             32.295
 Vibrational            132.289             49.106             37.247
 Vibration     1          0.598              1.969              4.204
 Vibration     2          0.602              1.957              3.682
 Vibration     3          0.610              1.929              3.046
 Vibration     4          0.620              1.898              2.617
 Vibration     5          0.634              1.853              2.226
 Vibration     6          0.650              1.801              1.911
 Vibration     7          0.666              1.752              1.688
 Vibration     8          0.677              1.720              1.565
 Vibration     9          0.699              1.656              1.366
 Vibration    10          0.712              1.618              1.266
 Vibration    11          0.720              1.595              1.212
 Vibration    12          0.731              1.564              1.141
 Vibration    13          0.749              1.517              1.046
 Vibration    14          0.770              1.459              0.944
 Vibration    15          0.844              1.277              0.690
 Vibration    16          0.851              1.261              0.670
 Vibration    17          0.858              1.245              0.652
 Vibration    18          0.876              1.204              0.609
 Vibration    19          0.884              1.185              0.588
 Vibration    20          0.913              1.123              0.529
 Vibration    21          0.929              1.090              0.499
 Vibration    22          0.948              1.053              0.467
 Vibration    23          0.963              1.023              0.442

                           ! Non-Optimized Parameters !
 Normal termination of Gaussian 16 at Fri May 19 01:33:45 2023.
