 Gaussian 16, Revision A.03,
 Gaussian 16:  ES64L-G16RevA.03 25-Dec-2016

 -----------------------------
 # opt freq b3lyp/6-31g(2df,p)
 -----------------------------

 -------------------
 Title Card Required
 -------------------
 Symbolic Z-matrix:
 Charge =  0 Multiplicity = 1

 SCF Done:  E(RB3LYP) =  -609.641132533     A.U. after   22 cycles
 SCF Done:  E(RB3LYP) =  -609.679232696     A.U. after   14 cycles
 SCF Done:  E(RB3LYP) =  -609.726962202     A.U. after   15 cycles
 SCF Done:  E(RB3LYP) =  -609.732231172     A.U. after   12 cycles
 SCF Done:  E(RB3LYP) =  -609.750879192     A.U. after   13 cycles
 SCF Done:  E(RB3LYP) =  -609.746143046     A.U. after   14 cycles
 SCF Done:  E(RB3LYP) =  -609.766894966     A.U. after   13 cycles
 SCF Done:  E(RB3LYP) =  -609.773631659     A.U. after   14 cycles
 SCF Done:  E(RB3LYP) =  -609.779515567     A.U. after   13 cycles
 SCF Done:  E(RB3LYP) =  -609.781765066     A.U. after   12 cycles
 SCF Done:  E(RB3LYP) =  -609.783175274     A.U. after   13 cycles
 SCF Done:  E(RB3LYP) =  -609.784476943     A.U. after   11 cycles
 SCF Done:  E(RB3LYP) =  -609.784776613     A.U. after   11 cycles
 SCF Done:  E(RB3LYP) =  -609.784911146     A.U. after   11 cycles
 SCF Done:  E(RB3LYP) =  -609.784954877     A.U. after   10 cycles
 SCF Done:  E(RB3LYP) =  -609.784985401     A.U. after   10 cycles
 SCF Done:  E(RB3LYP) =  -609.784994124     A.U. after    9 cycles
 SCF Done:  E(RB3LYP) =  -609.784996158     A.U. after    8 cycles
 SCF Done:  E(RB3LYP) =  -609.784996472     A.U. after    7 cycles
 Optimization completed.
    -- Stationary point found.
 Normal termination of Gaussian 16 at Wed May 17 22:17:47 2023.

 ----------------------------------------------------------------------
 #N Geom=AllCheck Guess=TCheck SCRF=Check GenChk RB3LYP/6-31G(2df,p) Fr
 eq
 ----------------------------------------------------------------------

 Structure from the checkpoint file:  "OC1dCC2dCqCdCCN2rNdC2CdC2C1.chk"
 -------------------
 Title Card Required
 -------------------
 Charge =  0 Multiplicity = 1

                         Standard orientation:
 ---------------------------------------------------------------------
 Center     Atomic      Atomic             Coordinates (Angstroms)
 Number     Number       Type             X           Y           Z
 ---------------------------------------------------------------------
      1          8           0       -2.647830   -2.223603   -0.367914
      2          6           0       -1.726883   -1.291199    0.015867
      3          6           0       -0.455773   -1.310294   -0.421216
      4          6           0        0.749227   -0.519072   -0.103916
      5          6           0        1.003014    0.823967   -0.203191
      6          6           0        2.354552    1.278884    0.118432
      7          6           0        3.389980    0.443464    0.249949
      8          6           0        3.186107   -1.025436   -0.010918
      9          7           0        1.806860   -1.357773    0.322114
     10          7           0        0.134049    1.873705   -0.590984
     11          6           0       -1.076162    1.786102   -0.227471
     12          6           0       -2.425734    2.243498   -0.132532
     13          6           0       -2.119687    1.059245    0.401987
     14          6           0       -2.391765   -0.283766    0.938956
     15          1           0       -2.220961   -2.863781   -0.950565
     16          1           0       -0.224800   -2.168390   -1.062694
     17          1           0        2.475057    2.350958    0.237773
     18          1           0        4.389273    0.801299    0.472614
     19          1           0        3.843886   -1.635973    0.619174
     20          1           0        3.450025   -1.266793   -1.064516
     21          1           0        1.591989   -2.339886    0.244121
     22          1           0       -3.213312    2.940152   -0.382061
     23          1           0       -3.457615   -0.510804    1.011956
     24          1           0       -1.958512   -0.361851    1.943926
 ---------------------------------------------------------------------

 SCF Done:  E(RB3LYP) =  -609.784996472     A.U. after    1 cycles

 The electronic state is 1-A.
 Alpha  occ. eigenvalues --  -19.18287 -14.32014 -14.28911 -10.26045 -10.23368
 Alpha  occ. eigenvalues --  -10.23285 -10.22846 -10.22457 -10.20497 -10.20452
 Alpha  occ. eigenvalues --  -10.18484 -10.18316 -10.16245 -10.15943  -1.07170
 Alpha  occ. eigenvalues --   -0.93745  -0.91676  -0.86790  -0.80669  -0.76966
 Alpha  occ. eigenvalues --   -0.74788  -0.70870  -0.63007  -0.62315  -0.59799
 Alpha  occ. eigenvalues --   -0.57939  -0.53729  -0.51683  -0.50201  -0.48835
 Alpha  occ. eigenvalues --   -0.46359  -0.45708  -0.44149  -0.43479  -0.42499
 Alpha  occ. eigenvalues --   -0.41374  -0.39718  -0.38861  -0.38067  -0.37157
 Alpha  occ. eigenvalues --   -0.36749  -0.34848  -0.32210  -0.31167  -0.26394
 Alpha  occ. eigenvalues --   -0.23932  -0.23740  -0.22347  -0.15013
 Alpha virt. eigenvalues --   -0.02541  -0.00799   0.03934   0.06043   0.06531
 Alpha virt. eigenvalues --    0.09152   0.11029   0.11718   0.12103   0.13482
 Alpha virt. eigenvalues --    0.14222   0.15939   0.16470   0.18424   0.19304

 Mulliken charges:
               1
     1  O   -0.420376
     2  C    0.393005
     3  C   -0.344311
     4  C    0.257061
     5  C    0.111717
     6  C   -0.068064
     7  C   -0.101004
     8  C   -0.214532
     9  N   -0.359574
    10  N   -0.460418
    11  C    0.342213
    12  C   -0.347359
    13  C    0.261305
    14  C   -0.454031
    15  H    0.298323
    16  H    0.067590
    17  H    0.089681
    18  H    0.085572
    19  H    0.100716
    20  H    0.079421
    21  H    0.219030
    22  H    0.158101
    23  H    0.144162
    24  H    0.161771
 Sum of Mulliken charges =  -0.00000

 Dipole moment (field-independent basis, Debye):
    X=             -2.5311    Y=             -2.8103    Z=              0.5652  Tot=              3.8241
 Quadrupole moment (field-independent basis, Debye-Ang):
   XX=            -71.7797   YY=            -73.3400   ZZ=            -80.6138
   XY=             -6.5341   XZ=             -0.0910   YZ=              5.3122

  Exact polarizability: 188.340  -5.541 141.740  -2.783  -0.473  73.800
 Approx polarizability: 285.591   0.621 239.125 -10.162 -10.249 125.941

                      1                      2                      3
                      A                      A                      A
 Frequencies --     58.8527                91.2222               108.0471
 Red. masses --      3.5435                 3.4388                 4.3322
 Frc consts  --      0.0072                 0.0169                 0.0298
 IR Inten    --      0.6911                 0.3082                 2.9571

                      4                      5                      6
                      A                      A                      A
 Frequencies --    167.0651               173.5694               239.3009
 Red. masses --      4.0250                 3.4825                 2.9752
 Frc consts  --      0.0662                 0.0618                 0.1004
 IR Inten    --      3.5804                 0.5021                 0.2888

                      7                      8                      9
                      A                      A                      A
 Frequencies --    304.9802               321.6222               357.4227
 Red. masses --      6.2661                 3.8887                 4.4337
 Frc consts  --      0.3434                 0.2370                 0.3337
 IR Inten    --      3.4247                 2.2291                 3.6947

                     10                     11                     12
                      A                      A                      A
 Frequencies --    374.8720               412.1407               446.7433
 Red. masses --      4.3435                 2.7309                 2.1991
 Frc consts  --      0.3596                 0.2733                 0.2586
 IR Inten    --      4.9076                34.3961                60.1813

                     13                     14                     15
                      A                      A                      A
 Frequencies --    453.1319               487.9413               513.1964
 Red. masses --      1.7785                 1.8619                 2.5966
 Frc consts  --      0.2152                 0.2612                 0.4029
 IR Inten    --      5.0767                79.1644                14.5282

                     16                     17                     18
                      A                      A                      A
 Frequencies --    528.7057               548.5154               592.4319
 Red. masses --      3.3125                 4.3351                 4.0697
 Frc consts  --      0.5455                 0.7685                 0.8416
 IR Inten    --      0.5090                 2.8117                 1.4643

                     19                     20                     21
                      A                      A                      A
 Frequencies --    612.3440               645.2815               675.3309
 Red. masses --      3.9156                 3.1001                 3.4851
 Frc consts  --      0.8650                 0.7605                 0.9365
 IR Inten    --     28.0039                19.9275                 2.4469

                     22                     23                     24
                      A                      A                      A
 Frequencies --    741.9831               770.9463               796.5595
 Red. masses --      4.0750                 2.2231                 1.5624
 Frc consts  --      1.3218                 0.7785                 0.5841
 IR Inten    --     11.9296                16.9249                22.4752

                     25                     26                     27
                      A                      A                      A
 Frequencies --    832.2494               852.2775               862.6664
 Red. masses --      4.0564                 1.5733                 4.4674
 Frc consts  --      1.6554                 0.6733                 1.9588
 IR Inten    --      1.7209                19.0455                 5.4137

                     28                     29                     30
                      A                      A                      A
 Frequencies --    907.6188               917.4912               939.6952
 Red. masses --      3.3784                 2.7722                 2.4096
 Frc consts  --      1.6397                 1.3749                 1.2536
 IR Inten    --     17.1975                 0.1827                 7.0865

                     31                     32                     33
                      A                      A                      A
 Frequencies --    960.1985               990.5372              1034.9144
 Red. masses --      2.3774                 1.3136                 1.9130
 Frc consts  --      1.2914                 0.7594                 1.2072
 IR Inten    --      9.3259                 0.2715                 4.1879

                     34                     35                     36
                      A                      A                      A
 Frequencies --   1063.2759              1075.9579              1109.6131
 Red. masses --      2.4516                 2.1848                 2.2618
 Frc consts  --      1.6330                 1.4902                 1.6408
 IR Inten    --     13.0267                21.6722                57.3091

                     37                     38                     39
                      A                      A                      A
 Frequencies --   1141.3821              1190.2462              1201.3127
 Red. masses --      2.3502                 1.3313                 2.7097
 Frc consts  --      1.8040                 1.1112                 2.3040
 IR Inten    --     18.2629                51.4946               124.6916

                     40                     41                     42
                      A                      A                      A
 Frequencies --   1217.5638              1232.5017              1246.4767
 Red. masses --      2.8462                 1.5351                 1.2568
 Frc consts  --      2.4860                 1.3739                 1.1505
 IR Inten    --     84.2727                58.4704                 1.7447

                     43                     44                     45
                      A                      A                      A
 Frequencies --   1268.9877              1279.7467              1324.8610
 Red. masses --      1.4423                 2.3308                 1.5929
 Frc consts  --      1.3685                 2.2491                 1.6473
 IR Inten    --     11.9768                 7.3310                57.2280

                     46                     47                     48
                      A                      A                      A
 Frequencies --   1353.4163              1417.7963              1441.8218
 Red. masses --      1.5156                 1.9700                 1.7888
 Frc consts  --      1.6357                 2.3331                 2.1910
 IR Inten    --     10.9543                 2.2606                11.8183

                     49                     50                     51
                      A                      A                      A
 Frequencies --   1459.6204              1498.3481              1517.2311
 Red. masses --      1.0927                 1.4249                 1.1836
 Frc consts  --      1.3716                 1.8848                 1.6053
 IR Inten    --      4.5774                40.1301                 7.5475

                     52                     53                     54
                      A                      A                      A
 Frequencies --   1606.9237              1682.5919              1701.6124
 Red. masses --      5.0202                 8.4793                 7.2139
 Frc consts  --      7.6377                14.1439                12.3066
 IR Inten    --     11.3307                14.7596                24.2132

                     55                     56                     57
                      A                      A                      A
 Frequencies --   1704.9376              1901.7023              2833.4941
 Red. masses --      7.9147                 9.8680                 1.0744
 Frc consts  --     13.5551                21.0264                 5.0822
 IR Inten    --    155.8236               347.8857               185.0546

                     58                     59                     60
                      A                      A                      A
 Frequencies --   3033.0407              3036.7935              3040.2704
 Red. masses --      1.0838                 1.0678                 1.0803
 Frc consts  --      5.8742                 5.8017                 5.8832
 IR Inten    --     55.8609                12.6524                55.9620

                     61                     62                     63
                      A                      A                      A
 Frequencies --   3108.3566              3172.2156              3194.4297
 Red. masses --      1.0963                 1.0841                 1.0980
 Frc consts  --      6.2406                 6.4278                 6.6014
 IR Inten    --     10.0700                 3.3902                23.5792

                     64                     65                     66
                      A                      A                      A
 Frequencies --   3228.5233              3605.5021              3786.2448
 Red. masses --      1.1130                 1.0754                 1.0648
 Frc consts  --      6.8350                 8.2370                 8.9940
 IR Inten    --      0.2357                 5.5111                32.6743

 - Thermochemistry -
 -------------------
 Temperature   298.150 Kelvin.  Pressure   1.00000 Atm.
 Atom     1 has atomic number  8 and mass  15.99491

 Molecular mass:   186.07931 amu.
 Principal axes and moments of inertia in atomic units:
                           1         2         3
     Eigenvalues --  1521.858313104.106854380.27103
           X            0.99993  -0.01174  -0.00247
           Y            0.01177   0.99989   0.00938
           Z            0.00235  -0.00941   0.99995
 This molecule is an asymmetric top.
 Rotational symmetry number  1.
 Warning -- assumption of classical behavior for rotation
           may cause significant error
 Rotational temperatures (Kelvin)      0.05691     0.02790     0.01977
 Rotational constants (GHZ):           1.18588     0.58140     0.41202
 Zero-point vibrational energy     492841.4 (Joules/Mol)
                                  117.79193 (Kcal/Mol)
 Warning -- explicit consideration of  19 degrees of freedom as
           vibrations may cause significant error
 Vibrational temperatures:     84.68   131.25   155.46   240.37   249.73
          (Kelvin)            344.30   438.80   462.74   514.25   539.36
                              592.98   642.76   651.96   702.04   738.38
                              760.69   789.19   852.38   881.03   928.42
                              971.65  1067.55  1109.22  1146.07  1197.42
                             1226.24  1241.18  1305.86  1320.07  1352.01
                             1381.51  1425.16  1489.01  1529.82  1548.06
                             1596.49  1642.19  1712.50  1728.42  1751.80
                             1773.29  1793.40  1825.79  1841.27  1906.18
                             1947.26  2039.89  2074.46  2100.07  2155.79
                             2182.96  2312.00  2420.87  2448.24  2453.02
                             2736.13  4076.77  4363.87  4369.27  4374.27
                             4472.23  4564.11  4596.07  4645.12  5187.51
                             5447.56

 Zero-point correction=                           0.187713 (Hartree/Particle)
 Thermal correction to Energy=                    0.199278
 Thermal correction to Enthalpy=                  0.200222
 Thermal correction to Gibbs Free Energy=         0.150301
 Sum of electronic and zero-point Energies=           -609.597283
 Sum of electronic and thermal Energies=              -609.585718
 Sum of electronic and thermal Enthalpies=            -609.584774
 Sum of electronic and thermal Free Energies=         -609.634696

                     E (Thermal)             CV                S
                      KCal/Mol        Cal/Mol-Kelvin    Cal/Mol-Kelvin
 Total                  125.049             46.296            105.069
 Electronic               0.000              0.000              0.000
 Translational            0.889              2.981             41.569
 Rotational               0.889              2.981             31.404
 Vibrational            123.271             40.334             32.096
 Vibration     1          0.596              1.974              4.495
 Vibration     2          0.602              1.955              3.634
 Vibration     3          0.606              1.943              3.304
 Vibration     4          0.624              1.883              2.468
 Vibration     5          0.627              1.875              2.396
 Vibration     6          0.657              1.780              1.808
 Vibration     7          0.696              1.664              1.389
 Vibration     8          0.707              1.632              1.302
 Vibration     9          0.733              1.560              1.133
 Vibration    10          0.746              1.524              1.060
 Vibration    11          0.776              1.444              0.919
 Vibration    12          0.806              1.368              0.806
 Vibration    13          0.812              1.354              0.786
 Vibration    14          0.844              1.277              0.689
 Vibration    15          0.868              1.221              0.626
 Vibration    16          0.884              1.186              0.590
 Vibration    17          0.904              1.143              0.547
 Vibration    18          0.950              1.048              0.463
 Vibration    19          0.972              1.006              0.429

                           ! Non-Optimized Parameters !
 Normal termination of Gaussian 16 at Wed May 17 23:47:39 2023.
