 Gaussian 16, Revision A.03,
 Gaussian 16:  ES64L-G16RevA.03 25-Dec-2016

 -----------------------------
 # opt freq b3lyp/6-31g(2df,p)
 -----------------------------

 -------------------
 Title Card Required
 -------------------
 Symbolic Z-matrix:
 Charge =  0 Multiplicity = 1

 SCF Done:  E(RB3LYP) =  -781.265155631     A.U. after   24 cycles
 SCF Done:  E(RB3LYP) =  -779.706406498     A.U. after   22 cycles
 SCF Done:  E(RB3LYP) =  -781.326257744     A.U. after   16 cycles
 SCF Done:  E(RB3LYP) =  -781.363595429     A.U. after   15 cycles
 SCF Done:  E(RB3LYP) =  -781.427320928     A.U. after   15 cycles
 SCF Done:  E(RB3LYP) =  -781.466615959     A.U. after   17 cycles
 SCF Done:  E(RB3LYP) =  -781.521758507     A.U. after   16 cycles
 SCF Done:  E(RB3LYP) =  -781.565938703     A.U. after   15 cycles
 SCF Done:  E(RB3LYP) =  -781.631948870     A.U. after   14 cycles
 SCF Done:  E(RB3LYP) =  -781.683014989     A.U. after   15 cycles
 SCF Done:  E(RB3LYP) =  -781.813696959     A.U. after   10 cycles
 SCF Done:  E(RB3LYP) =  -781.813783457     A.U. after   10 cycles
 SCF Done:  E(RB3LYP) =  -781.813825028     A.U. after   11 cycles
 SCF Done:  E(RB3LYP) =  -781.813838959     A.U. after   10 cycles
 SCF Done:  E(RB3LYP) =  -781.813848087     A.U. after    9 cycles
 SCF Done:  E(RB3LYP) =  -781.813851092     A.U. after    8 cycles
 SCF Done:  E(RB3LYP) =  -781.813851756     A.U. after    8 cycles
 SCF Done:  E(RB3LYP) =  -781.813852012     A.U. after    7 cycles
 SCF Done:  E(RB3LYP) =  -781.813852112     A.U. after    7 cycles
 Optimization completed.
    -- Stationary point found.

 The electronic state is 1-A.
 Alpha  occ. eigenvalues --  -19.14573 -14.34126 -14.34064 -14.33935 -10.23545
 Alpha  occ. eigenvalues --  -10.23516 -10.23306 -10.23056 -10.22048 -10.21683
 Alpha  occ. eigenvalues --  -10.21537 -10.21127 -10.20958 -10.20573 -10.19509
 Alpha  occ. eigenvalues --  -10.19045 -10.17641 -10.17350  -1.02629  -0.99586
 Alpha  occ. eigenvalues --   -0.95813  -0.91253  -0.82558  -0.79653  -0.76864
 Alpha  occ. eigenvalues --   -0.72219  -0.70262  -0.68947  -0.67595  -0.65612
 Alpha  occ. eigenvalues --   -0.63997  -0.60713  -0.58238  -0.54618  -0.54145
 Alpha  occ. eigenvalues --   -0.52426  -0.50204  -0.48586  -0.47529  -0.47283
 Alpha  occ. eigenvalues --   -0.46069  -0.45722  -0.45041  -0.44484  -0.42930
 Alpha  occ. eigenvalues --   -0.41977  -0.40639  -0.40042  -0.37896  -0.36947
 Alpha  occ. eigenvalues --   -0.36242  -0.34849  -0.34434  -0.33494  -0.33170
 Alpha  occ. eigenvalues --   -0.32625  -0.32248  -0.29690  -0.27877  -0.26282
 Alpha  occ. eigenvalues --   -0.25492  -0.24361  -0.23579  -0.20589
 Alpha virt. eigenvalues --   -0.06584  -0.01597   0.03116   0.05165   0.06769
 Alpha virt. eigenvalues --    0.06942   0.08836   0.10235   0.10836   0.11683
 Alpha virt. eigenvalues --    0.12599   0.13153   0.13724   0.14515   0.15147

 Mulliken charges:
               1
     1  O   -0.418938
     2  C   -0.131268
     3  C    0.014991
     4  C   -0.323222
     5  C    0.174821
     6  C   -0.038615
     7  N   -0.214083
     8  C   -0.017898
     9  C   -0.034358
    10  N   -0.221391
    11  C    0.191604
    12  C   -0.212994
    13  C   -0.450728
    14  C    0.499431
    15  C   -0.195545
    16  C   -0.190388
    17  N   -0.206583
    18  C    0.015300
    19  H    0.291238
    20  H    0.101782
    21  H    0.087266
    22  H    0.115374
    23  H    0.124391
    24  H    0.108327
    25  H    0.125636
    26  H    0.111084
    27  H    0.116983
    28  H    0.093006
    29  H    0.105974
    30  H    0.086093
    31  H    0.102208
    32  H    0.115341
    33  H    0.075163
 Sum of Mulliken charges =  -0.00000

 Dipole moment (field-independent basis, Debye):
    X=             -1.3142    Y=              1.2517    Z=              2.1213  Tot=              2.7917
 Quadrupole moment (field-independent basis, Debye-Ang):
   XX=            -94.1007   YY=            -96.4035   ZZ=           -108.9953
   XY=             -7.0867   XZ=             -5.5292   YZ=              3.8456

 Normal termination of Gaussian 16 at Sat May 20 12:20:36 2023.

 ----------------------------------------------------------------------
 #N Geom=AllCheck Guess=TCheck SCRF=Check GenChk RB3LYP/6-31G(2df,p) Fr
 eq
 ----------------------------------------------------------------------

 Structure from the checkpoint file:  "OCC1CC2dCNdCCdNC2dCCdC2C3CN2C13.chk"
 -------------------
 Title Card Required
 -------------------
 Charge =  0 Multiplicity = 1

                         Standard orientation:
 ---------------------------------------------------------------------
 Center     Atomic      Atomic             Coordinates (Angstroms)
 Number     Number       Type             X           Y           Z
 ---------------------------------------------------------------------
      1          8           0       -1.072961    3.444580   -0.220531
      2          6           0       -2.056948    2.484395    0.132034
      3          6           0       -1.437306    1.091926   -0.009952
      4          6           0       -0.194422    0.948442    0.934136
      5          6           0        1.084834    0.426650    0.301141
      6          6           0        1.926637    1.312868   -0.285012
      7          7           0        3.128907    1.071444   -0.920400
      8          6           0        3.946351    0.145953   -0.552534
      9          6           0        3.782552   -0.734880    0.606268
     10          7           0        2.683443   -1.213883    1.052374
     11          6           0        1.492724   -1.007606    0.312780
     12          6           0        0.876396   -2.034409   -0.291542
     13          6           0       -0.362146   -1.847324   -1.070241
     14          6           0       -1.507229   -1.552808   -0.484122
     15          6           0       -2.158511   -1.343613    0.857500
     16          6           0       -3.427217   -1.858436    0.134949
     17          7           0       -2.797611   -0.971830   -0.960918
     18          6           0       -2.521522    0.027693    0.221642
     19          1           0       -1.440375    4.323189   -0.089025
     20          1           0       -2.935377    2.555748   -0.527809
     21          1           0       -2.406477    2.635788    1.167606
     22          1           0       -1.094062    1.009175   -1.044917
     23          1           0        0.027584    1.944657    1.324787
     24          1           0       -0.448712    0.321513    1.792850
     25          1           0        1.605105    2.350347   -0.357455
     26          1           0        4.900399    0.092478   -1.081670
     27          1           0        4.693060   -0.967520    1.166423
     28          1           0        1.352963   -3.011621   -0.247245
     29          1           0       -0.319816   -1.852319   -2.157976
     30          1           0       -1.788759   -1.569379    1.860176
     31          1           0       -4.394955   -1.487709    0.486493
     32          1           0       -3.467397   -2.913916   -0.138524
     33          1           0       -3.467833    0.459702    0.570863
 ---------------------------------------------------------------------

 SCF Done:  E(RB3LYP) =  -781.813852112     A.U. after    1 cycles
