 Gaussian 16, Revision A.03,
 Gaussian 16:  ES64L-G16RevA.03 25-Dec-2016

 -----------------------------
 # opt freq b3lyp/6-31g(2df,p)
 -----------------------------

 -------------------
 Title Card Required
 -------------------
 Symbolic Z-matrix:
 Charge =  0 Multiplicity = 1

 SCF Done:  E(RB3LYP) =  -668.018222095     A.U. after   14 cycles
 SCF Done:  E(RB3LYP) =  -668.033265141     A.U. after   13 cycles
 SCF Done:  E(RB3LYP) =  -668.039987050     A.U. after   13 cycles
 SCF Done:  E(RB3LYP) =  -668.042521531     A.U. after   12 cycles
 SCF Done:  E(RB3LYP) =  -668.042838988     A.U. after   12 cycles
 SCF Done:  E(RB3LYP) =  -668.043062827     A.U. after   11 cycles
 SCF Done:  E(RB3LYP) =  -668.043242318     A.U. after   11 cycles
 SCF Done:  E(RB3LYP) =  -668.043403797     A.U. after   12 cycles
 SCF Done:  E(RB3LYP) =  -668.043593142     A.U. after   11 cycles
 SCF Done:  E(RB3LYP) =  -668.043683285     A.U. after   11 cycles
 SCF Done:  E(RB3LYP) =  -668.043854915     A.U. after   11 cycles
 SCF Done:  E(RB3LYP) =  -668.043902217     A.U. after   11 cycles
 SCF Done:  E(RB3LYP) =  -668.043909645     A.U. after   10 cycles
 SCF Done:  E(RB3LYP) =  -668.043916327     A.U. after   10 cycles
 SCF Done:  E(RB3LYP) =  -668.043914865     A.U. after    9 cycles
 SCF Done:  E(RB3LYP) =  -668.043917303     A.U. after    9 cycles
 SCF Done:  E(RB3LYP) =  -668.043917811     A.U. after    8 cycles
 SCF Done:  E(RB3LYP) =  -668.043917993     A.U. after    7 cycles
 SCF Done:  E(RB3LYP) =  -668.043918072     A.U. after    6 cycles
 Optimization completed.
    -- Stationary point found.
 Normal termination of Gaussian 16 at Sat May 20 01:52:19 2023.

 ----------------------------------------------------------------------
 #N Geom=AllCheck Guess=TCheck SCRF=Check GenChk RB3LYP/6-31G(2df,p) Fr
 eq
 ----------------------------------------------------------------------

 Structure from the checkpoint file:  "OCCdNC1dCCdCCqOrdCqOrCdC1.chk"
 -------------------
 Title Card Required
 -------------------
 Charge =  0 Multiplicity = 1

                         Standard orientation:
 ---------------------------------------------------------------------
 Center     Atomic      Atomic             Coordinates (Angstroms)
 Number     Number       Type             X           Y           Z
 ---------------------------------------------------------------------
      1          8           0        4.761236   -0.303053   -1.224418
      2          6           0        4.112582    0.575348   -0.318746
      3          6           0        2.666991    0.169295   -0.251811
      4          7           0        2.003015    0.242661    0.825974
      5          6           0        0.657150   -0.172325    0.855499
      6          6           0        0.306094   -1.420029    0.480165
      7          6           0       -1.000111   -2.063505    0.595553
      8          6           0       -2.196277   -1.590181    0.210357
      9          6           0       -2.493715   -0.319038   -0.440391
     10          8           0       -3.387940   -0.382736   -1.512927
     11          6           0       -2.137891    0.921844   -0.061956
     12          8           0       -2.591915    2.014282   -0.743886
     13          6           0       -1.388460    1.283761    1.147178
     14          6           0       -0.203612    0.813927    1.539566
     15          1           0        5.653132    0.023720   -1.371942
     16          1           0        4.160523    1.620152   -0.672491
     17          1           0        4.545622    0.545680    0.690234
     18          1           0        2.228810   -0.170353   -1.200299
     19          1           0        1.116644   -2.072989    0.159733
     20          1           0       -0.977254   -3.078571    0.991689
     21          1           0       -3.061998   -2.244783    0.317709
     22          1           0       -3.142571   -1.126602   -2.073153
     23          1           0       -3.129397    1.672407   -1.473428
     24          1           0       -1.854828    2.072302    1.735831
     25          1           0        0.252645    1.237887    2.431651
 ---------------------------------------------------------------------

 SCF Done:  E(RB3LYP) =  -668.043918072     A.U. after    1 cycles

 The electronic state is 1-A.
 Alpha  occ. eigenvalues --  -19.16373 -19.15429 -19.14605 -14.33324 -10.23941
 Alpha  occ. eigenvalues --  -10.23248 -10.23033 -10.22160 -10.22042 -10.18966
 Alpha  occ. eigenvalues --  -10.18921 -10.18869 -10.18832 -10.18373  -1.05898
 Alpha  occ. eigenvalues --   -1.02898  -1.02801  -0.93704  -0.82285  -0.77971
 Alpha  occ. eigenvalues --   -0.76804  -0.72041  -0.68684  -0.66079  -0.60210
 Alpha  occ. eigenvalues --   -0.58304  -0.55686  -0.53570  -0.52587  -0.50501
 Alpha  occ. eigenvalues --   -0.49279  -0.47776  -0.45909  -0.45366  -0.44115
 Alpha  occ. eigenvalues --   -0.42624  -0.42082  -0.39702  -0.39297  -0.36961
 Alpha  occ. eigenvalues --   -0.36401  -0.35177  -0.34934  -0.33206  -0.32128
 Alpha  occ. eigenvalues --   -0.30450  -0.27947  -0.27377  -0.26602  -0.22698
 Alpha  occ. eigenvalues --   -0.18422
 Alpha virt. eigenvalues --   -0.05385  -0.00130   0.02033   0.04861   0.07629
 Alpha virt. eigenvalues --    0.08411   0.10654   0.11086   0.13181   0.13876
 Alpha virt. eigenvalues --    0.14011   0.14667   0.16089   0.17659   0.18667

 Mulliken charges:
               1
     1  O   -0.419744
     2  C   -0.133387
     3  C    0.031805
     4  N   -0.215218
     5  C    0.235601
     6  C   -0.187475
     7  C   -0.087524
     8  C   -0.201952
     9  C    0.181497
    10  O   -0.469836
    11  C    0.248106
    12  O   -0.442960
    13  C   -0.134827
    14  C   -0.131068
    15  H    0.294435
    16  H    0.107821
    17  H    0.113987
    18  H    0.105887
    19  H    0.093882
    20  H    0.096326
    21  H    0.096217
    22  H    0.296261
    23  H    0.301151
    24  H    0.108758
    25  H    0.112255
 Sum of Mulliken charges =  -0.00000

 Dipole moment (field-independent basis, Debye):
    X=              1.6445    Y=             -0.7846    Z=             -1.4505  Tot=              2.3290
 Quadrupole moment (field-independent basis, Debye-Ang):
   XX=            -67.1646   YY=            -78.7706   ZZ=            -77.1245
   XY=              9.2936   XZ=              0.2092   YZ=              1.2289

  Exact polarizability: 173.649   6.468 127.556   7.024   5.428  95.966
 Approx polarizability: 242.344   6.921 226.946  20.797  13.877 157.378

                      1                      2                      3
                      A                      A                      A
 Frequencies --     33.9686                57.1896                77.8508
 Red. masses --      6.3794                 4.0887                 4.4920
 Frc consts  --      0.0043                 0.0079                 0.0160
 IR Inten    --      0.5294                 2.6682                 3.8159

                      4                      5                      6
                      A                      A                      A
 Frequencies --    119.3048               136.4795               160.9756
 Red. masses --      4.8307                 4.4077                 3.2605
 Frc consts  --      0.0405                 0.0484                 0.0498
 IR Inten    --      0.1952                 9.4850                 3.5441

                      7                      8                      9
                      A                      A                      A
 Frequencies --    210.8511               218.5851               235.0990
 Red. masses --      4.4340                 1.5071                 2.5033
 Frc consts  --      0.1161                 0.0424                 0.0815
 IR Inten    --      4.9864                54.9812                25.1021

                     10                     11                     12
                      A                      A                      A
 Frequencies --    255.2380               277.6669               294.9497
 Red. masses --      1.9041                 1.3071                 3.8019
 Frc consts  --      0.0731                 0.0594                 0.1949
 IR Inten    --     53.4236                52.7542                12.9560

                     13                     14                     15
                      A                      A                      A
 Frequencies --    337.3646               339.9660               395.9019
 Red. masses --      4.3857                 3.8437                 3.9803
 Frc consts  --      0.2941                 0.2617                 0.3676
 IR Inten    --     24.2732                 6.6548                 1.9270

                     16                     17                     18
                      A                      A                      A
 Frequencies --    434.7184               467.9113               501.2044
 Red. masses --      5.3571                 4.0934                 2.8803
 Frc consts  --      0.5965                 0.5280                 0.4263
 IR Inten    --      3.1231                 7.4071                14.2956

                     19                     20                     21
                      A                      A                      A
 Frequencies --    545.4908               559.8992               575.7242
 Red. masses --      2.8640                 3.2127                 1.6492
 Frc consts  --      0.5021                 0.5934                 0.3221
 IR Inten    --     10.3295                11.3628                49.0593

                     22                     23                     24
                      A                      A                      A
 Frequencies --    599.9200               666.6510               690.2617
 Red. masses --      4.3298                 5.4698                 3.9375
 Frc consts  --      0.9181                 1.4322                 1.1054
 IR Inten    --     18.2401                19.8207                 4.6481

                     25                     26                     27
                      A                      A                      A
 Frequencies --    740.4832               776.8716               813.3652
 Red. masses --      3.3939                 2.0755                 1.8952
 Frc consts  --      1.0964                 0.7380                 0.7387
 IR Inten    --      9.1037                19.1105                20.8511

                     28                     29                     30
                      A                      A                      A
 Frequencies --    837.3543               864.7748               907.8413
 Red. masses --      2.7197                 1.6404                 3.0557
 Frc consts  --      1.1235                 0.7228                 1.4838
 IR Inten    --      4.4563                 4.5228                34.2065

                     31                     32                     33
                      A                      A                      A
 Frequencies --    909.5582               983.1830               993.7560
 Red. masses --      1.8291                 1.3239                 1.2987
 Frc consts  --      0.8916                 0.7540                 0.7557
 IR Inten    --      1.4488                 3.9754                 3.6014

                     34                     35                     36
                      A                      A                      A
 Frequencies --   1010.7462              1026.8573              1079.4958
 Red. masses --      2.4516                 2.2045                 5.5794
 Frc consts  --      1.4756                 1.3696                 3.8307
 IR Inten    --      4.6063                54.6056                84.4416

                     37                     38                     39
                      A                      A                      A
 Frequencies --   1089.0857              1113.7713              1164.0850
 Red. masses --      2.4993                 2.1966                 3.7318
 Frc consts  --      1.7466                 1.6054                 2.9795
 IR Inten    --     47.9702                13.8802                41.8872

                     40                     41                     42
                      A                      A                      A
 Frequencies --   1194.1956              1223.1890              1227.1017
 Red. masses --      1.8206                 2.3834                 1.1092
 Frc consts  --      1.5297                 2.1010                 0.9840
 IR Inten    --     47.9607                78.7796                47.1631

                     43                     44                     45
                      A                      A                      A
 Frequencies --   1233.2024              1249.9766              1253.4715
 Red. masses --      1.3883                 1.1821                 1.1613
 Frc consts  --      1.2439                 1.0882                 1.0751
 IR Inten    --     98.3310                82.5003                57.0494

                     46                     47                     48
                      A                      A                      A
 Frequencies --   1269.5406              1348.2579              1357.5448
 Red. masses --      1.6029                 1.2601                 1.3082
 Frc consts  --      1.5221                 1.3495                 1.4205
 IR Inten    --     80.9980                14.7903                19.6155

                     49                     50                     51
                      A                      A                      A
 Frequencies --   1396.5217              1436.8486              1451.6938
 Red. masses --      1.4991                 1.6000                 1.6013
 Frc consts  --      1.7226                 1.9463                 1.9883
 IR Inten    --     31.8768                 4.6785                13.1856

                     52                     53                     54
                      A                      A                      A
 Frequencies --   1460.2985              1501.2218              1663.6230
 Red. masses --      2.0595                 1.0783                 7.4891
 Frc consts  --      2.5876                 1.4317                12.2120
 IR Inten    --     11.1341                 8.2645                23.9135

                     55                     56                     57
                      A                      A                      A
 Frequencies --   1686.1095              1724.1690              1742.9969
 Red. masses --      7.1418                 7.4522                 8.9102
 Frc consts  --     11.9627                13.0525                15.9489
 IR Inten    --     17.0790                50.0918                83.9118

                     58                     59                     60
                      A                      A                      A
 Frequencies --   1747.8217              2953.3128              3026.0760
 Red. masses --      9.0398                 1.0670                 1.0890
 Frc consts  --     16.2707                 5.4830                 5.8752
 IR Inten    --     39.6683                39.4487                 4.9361

                     61                     62                     63
                      A                      A                      A
 Frequencies --   3035.8523              3108.1801              3126.6161
 Red. masses --      1.0897                 1.0811                 1.0884
 Frc consts  --      5.9173                 6.1534                 6.2690
 IR Inten    --     48.9622                 1.5752                41.1659

                     64                     65                     66
                      A                      A                      A
 Frequencies --   3132.7956              3136.5112              3155.7482
 Red. masses --      1.0824                 1.0895                 1.0925
 Frc consts  --      6.2591                 6.3148                 6.4100
 IR Inten    --      7.2734                25.2903                19.1851

                     67                     68                     69
                      A                      A                      A
 Frequencies --   3737.6633              3805.6689              3838.5515
 Red. masses --      1.0638                 1.0665                 1.0665
 Frc consts  --      8.7563                 9.1008                 9.2586
 IR Inten    --     68.7644                44.9932                32.5791

 - Thermochemistry -
 -------------------
 Temperature   298.150 Kelvin.  Pressure   1.00000 Atm.
 Atom     1 has atomic number  8 and mass  15.99491

 Molecular mass:   193.07389 amu.
 Principal axes and moments of inertia in atomic units:
                           1         2         3
     Eigenvalues --  1484.131925366.177305673.34575
           X            0.99994   0.01032  -0.00263
           Y           -0.01027   0.99973   0.02087
           Z            0.00285  -0.02084   0.99978
 This molecule is an asymmetric top.
 Rotational symmetry number  1.
 Warning -- assumption of classical behavior for rotation
           may cause significant error
 Rotational temperatures (Kelvin)      0.05836     0.01614     0.01527
 Rotational constants (GHZ):           1.21602     0.33632     0.31811
 Zero-point vibrational energy     512774.3 (Joules/Mol)
                                  122.55599 (Kcal/Mol)
 Warning -- explicit consideration of  22 degrees of freedom as
           vibrations may cause significant error
 Vibrational temperatures:     48.87    82.28   112.01   171.65   196.36
          (Kelvin)            231.61   303.37   314.50   338.25   367.23
                              399.50   424.37   485.39   489.14   569.61
                              625.46   673.22   721.12   784.84   805.57
                              828.34   863.15   959.16   993.13  1065.39
                             1117.74  1170.25  1204.77  1244.22  1306.18
                             1308.65  1414.58  1429.79  1454.24  1477.42
                             1553.15  1566.95  1602.47  1674.86  1718.18
                             1759.90  1765.53  1774.30  1798.44  1803.47
                             1826.59  1939.84  1953.20  2009.28  2067.30
                             2088.66  2101.04  2159.92  2393.58  2425.94
                             2480.69  2507.78  2514.73  4249.16  4353.85
                             4367.91  4471.98  4498.50  4507.39  4512.74
                             4540.42  5377.66  5475.51  5522.82

 Zero-point correction=                           0.195305 (Hartree/Particle)
 Thermal correction to Energy=                    0.209191
 Thermal correction to Enthalpy=                  0.210135
 Thermal correction to Gibbs Free Energy=         0.154253
 Sum of electronic and zero-point Energies=           -667.848613
 Sum of electronic and thermal Energies=              -667.834727
 Sum of electronic and thermal Enthalpies=            -667.833783
 Sum of electronic and thermal Free Energies=         -667.889665

                     E (Thermal)             CV                S
                      KCal/Mol        Cal/Mol-Kelvin    Cal/Mol-Kelvin
 Total                  131.269             51.890            117.615
 Electronic               0.000              0.000              0.000
 Translational            0.889              2.981             41.679
 Rotational               0.889              2.981             32.180
 Vibrational            129.492             45.928             43.756
 Vibration     1          0.594              1.983              5.583
 Vibration     2          0.596              1.975              4.552
 Vibration     3          0.599              1.964              3.944
 Vibration     4          0.609              1.933              3.112
 Vibration     5          0.614              1.917              2.853
 Vibration     6          0.622              1.890              2.538
 Vibration     7          0.643              1.824              2.036
 Vibration     8          0.646              1.813              1.971
 Vibration     9          0.655              1.787              1.840
 Vibration    10          0.666              1.754              1.694
 Vibration    11          0.679              1.715              1.548
 Vibration    12          0.689              1.683              1.445
 Vibration    13          0.718              1.601              1.225
 Vibration    14          0.720              1.596              1.212
 Vibration    15          0.763              1.479              0.978
 Vibration    16          0.795              1.395              0.843
 Vibration    17          0.825              1.321              0.743
 Vibration    18          0.857              1.247              0.655
 Vibration    19          0.901              1.150              0.554
 Vibration    20          0.916              1.118              0.524
 Vibration    21          0.932              1.084              0.493
 Vibration    22          0.958              1.032              0.450

 Optimization completed.
    -- Stationary point found.
 Normal termination of Gaussian 16 at Sat May 20 03:10:39 2023.
