 Gaussian 16, Revision A.03,
 Gaussian 16:  ES64L-G16RevA.03 25-Dec-2016

 -----------------------------
 # opt freq b3lyp/6-31g(2df,p)
 -----------------------------

 -------------------
 Title Card Required
 -------------------
 Symbolic Z-matrix:
 Charge =  0 Multiplicity = 1

 SCF Done:  E(RB3LYP) =  -923.138494491     A.U. after   17 cycles
 SCF Done:  E(RB3LYP) =  -923.190526508     A.U. after   15 cycles
 SCF Done:  E(RB3LYP) =  -923.230768653     A.U. after   14 cycles
 SCF Done:  E(RB3LYP) =  -923.250097802     A.U. after   14 cycles
 SCF Done:  E(RB3LYP) =  -923.254999097     A.U. after   14 cycles
 SCF Done:  E(RB3LYP) =  -923.256144966     A.U. after   11 cycles
 SCF Done:  E(RB3LYP) =  -923.256228493     A.U. after   14 cycles
 SCF Done:  E(RB3LYP) =  -923.255689369     A.U. after   15 cycles
 SCF Done:  E(RB3LYP) =  -923.257988181     A.U. after   13 cycles
 SCF Done:  E(RB3LYP) =  -923.258254253     A.U. after   14 cycles
 SCF Done:  E(RB3LYP) =  -923.315594965     A.U. after   10 cycles
 SCF Done:  E(RB3LYP) =  -923.316061466     A.U. after   12 cycles
 SCF Done:  E(RB3LYP) =  -923.316256888     A.U. after   12 cycles
 SCF Done:  E(RB3LYP) =  -923.316323103     A.U. after   12 cycles
 SCF Done:  E(RB3LYP) =  -923.316372278     A.U. after   11 cycles
 SCF Done:  E(RB3LYP) =  -923.316414457     A.U. after   11 cycles
 SCF Done:  E(RB3LYP) =  -923.316420722     A.U. after    9 cycles
 SCF Done:  E(RB3LYP) =  -923.316423738     A.U. after    9 cycles
 SCF Done:  E(RB3LYP) =  -923.316424744     A.U. after    8 cycles
 Optimization completed.
    -- Stationary point found.
 Normal termination of Gaussian 16 at Sat May 20 03:08:29 2023.

 ----------------------------------------------------------------------
 #N Geom=AllCheck Guess=TCheck SCRF=Check GenChk RB3LYP/6-31G(2df,p) Fr
 eq
 ----------------------------------------------------------------------

 Structure from the checkpoint file:  "OdC1NCdCC2dCC2dNNdNS1.chk"
 -------------------
 Title Card Required
 -------------------
 Charge =  0 Multiplicity = 1

                         Standard orientation:
 ---------------------------------------------------------------------
 Center     Atomic      Atomic             Coordinates (Angstroms)
 Number     Number       Type             X           Y           Z
 ---------------------------------------------------------------------
      1          8           0        4.405376   -0.332527   -0.002392
      2          6           0        3.314084    0.185436   -0.000482
      3          7           0        2.212713   -0.935040    0.000484
      4          6           0        0.928638   -0.774090   -0.000396
      5          6           0       -0.045586   -1.796550    0.000208
      6          6           0       -1.363022   -1.469156   -0.000284
      7          6           0       -2.736654   -1.804947    0.001863
      8          6           0       -2.399127   -0.508841   -0.000437
      9          7           0       -2.671485    0.817955   -0.002254
     10          7           0       -3.885260    1.149705    0.000952
     11          7           0       -4.905635    1.620140   -0.001044
     12         16           0        2.705352    1.755554    0.001582
     13          1           0        2.635254   -1.859024    0.000787
     14          1           0        0.643090    0.281926   -0.001123
     15          1           0        0.243883   -2.841479    0.001047
     16          1           0       -3.493196   -2.570515    0.003317
 ---------------------------------------------------------------------

 SCF Done:  E(RB3LYP) =  -923.316424744     A.U. after    1 cycles

 The electronic state is 1-A.
 Alpha  occ. eigenvalues --  -88.77864 -19.08952 -14.58833 -14.49982 -14.47151
 Alpha  occ. eigenvalues --  -14.38566 -10.33605 -10.29328 -10.29070 -10.27181
 Alpha  occ. eigenvalues --  -10.27039 -10.22363  -7.84523  -5.80984  -5.80458
 Alpha  occ. eigenvalues --   -5.80203  -1.22834  -1.07468  -1.01795  -0.98534
 Alpha  occ. eigenvalues --   -0.95334  -0.80545  -0.77235  -0.68990  -0.66617
 Alpha  occ. eigenvalues --   -0.63901  -0.59451  -0.59358  -0.57473  -0.54256
 Alpha  occ. eigenvalues --   -0.53343  -0.51541  -0.47344  -0.46867  -0.44253
 Alpha  occ. eigenvalues --   -0.41622  -0.41318  -0.39201  -0.37687  -0.36534
 Alpha  occ. eigenvalues --   -0.35507  -0.33980  -0.26086  -0.23731  -0.18709
 Alpha  occ. eigenvalues --   -0.17646
 Alpha virt. eigenvalues --   -0.10587  -0.10341  -0.07272  -0.00709   0.04311
 Alpha virt. eigenvalues --    0.05331   0.06309   0.07005   0.08949   0.10370
 Alpha virt. eigenvalues --    0.12194   0.13793   0.14983   0.16929   0.18452

 Mulliken charges:
               1
     1  O   -0.361572
     2  C    0.397114
     3  N   -0.332009
     4  C    0.180878
     5  C   -0.417911
     6  C    0.373598
     7  C   -0.287914
     8  C    0.342971
     9  N   -0.348746
    10  N    0.417790
    11  N   -0.150109
    12  S   -0.568174
    13  H    0.258145
    14  H    0.180749
    15  H    0.117673
    16  H    0.197516
 Sum of Mulliken charges =  -0.00000

 Dipole moment (field-independent basis, Debye):
    X=            -13.1332    Y=             -6.4511    Z=              0.0051  Tot=             14.6321
 Quadrupole moment (field-independent basis, Debye-Ang):
   XX=            -88.6706   YY=            -70.2386   ZZ=            -74.5535
   XY=             -7.5132   XZ=             -0.0073   YZ=             -0.0116

  Exact polarizability: 212.900 -10.779 129.638  -0.013  -0.010  51.539
 Approx polarizability: 336.362 -45.169 225.251  -0.054  -0.012  85.313

                      1                      2                      3
                      A                      A                      A
 Frequencies --     37.3428                38.6926                81.2395
 Red. masses --     14.7395                14.9820                 6.0931
 Frc consts  --      0.0121                 0.0132                 0.0237
 IR Inten    --      2.5108                 0.0326                 0.1129

                      4                      5                      6
                      A                      A                      A
 Frequencies --     91.3744               118.0413               175.8907
 Red. masses --      9.7282                10.9175                10.1259
 Frc consts  --      0.0479                 0.0896                 0.1846
 IR Inten    --      1.8301                 1.9334                 2.3986

                      7                      8                      9
                      A                      A                      A
 Frequencies --    183.6422               261.3038               297.5925
 Red. masses --      4.9224                 7.5750                 2.1601
 Frc consts  --      0.0978                 0.3047                 0.1127
 IR Inten    --      5.2770                29.8614                 0.2398

                     10                     11                     12
                      A                      A                      A
 Frequencies --    352.8402               395.4037               469.4562
 Red. masses --      8.8412                 2.9199                 6.3786
 Frc consts  --      0.6485                 0.2690                 0.8283
 IR Inten    --     18.6108                 2.9036                33.7183

                     13                     14                     15
                      A                      A                      A
 Frequencies --    525.7724               548.5807               560.0591
 Red. masses --     10.2657                 5.8727                13.4517
 Frc consts  --      1.6720                 1.0413                 2.4860
 IR Inten    --     85.0909                 9.2180                 7.1550

                     16                     17                     18
                      A                      A                      A
 Frequencies --    593.1731               615.2845               651.6828
 Red. masses --      5.5344                 9.5726                 7.3339
 Frc consts  --      1.1473                 2.1352                 1.8351
 IR Inten    --     44.0163                 0.0380                 0.2492

                     19                     20                     21
                      A                      A                      A
 Frequencies --    661.5849               789.7010               792.8843
 Red. masses --      4.3514                 1.3398                 1.4130
 Frc consts  --      1.1221                 0.4923                 0.5234
 IR Inten    --     94.1954                37.0255                 0.2832

                     22                     23                     24
                      A                      A                      A
 Frequencies --    828.8312               845.2753               845.6743
 Red. masses --      7.1271                 7.4480                 1.6480
 Frc consts  --      2.8847                 3.1354                 0.6944
 IR Inten    --    376.3603               240.0175                74.8796

                     25                     26                     27
                      A                      A                      A
 Frequencies --    981.5412              1050.7727              1094.4878
 Red. masses --      2.4517                 2.1633                 1.1943
 Frc consts  --      1.3916                 1.4073                 0.8429
 IR Inten    --     10.6720                50.3324                20.3788

                     28                     29                     30
                      A                      A                      A
 Frequencies --   1172.3943              1208.8458              1241.1477
 Red. masses --      4.5633                 1.8442                 1.3551
 Frc consts  --      3.6956                 1.5878                 1.2299
 IR Inten    --     23.4411               198.2056                48.8707

                     31                     32                     33
                      A                      A                      A
 Frequencies --   1274.9996              1374.0365              1396.3323
 Red. masses --      7.8533                 1.4274                 2.3382
 Frc consts  --      7.5218                 1.5878                 2.6860
 IR Inten    --    256.7458                 5.3641                86.4044

                     34                     35                     36
                      A                      A                      A
 Frequencies --   1580.7594              1673.4886              1760.9477
 Red. masses --      8.3814                 6.6997                10.6875
 Frc consts  --     12.3395                11.0548                19.5263
 IR Inten    --   1235.8323               301.9363               434.8204

                     37                     38                     39
                      A                      A                      A
 Frequencies --   1884.8571              2282.5693              3096.2618
 Red. masses --      9.2387                13.9885                 1.0897
 Frc consts  --     19.3383                42.9406                 6.1550
 IR Inten    --    204.6337               605.8532                42.5280

                     40                     41                     42
                      A                      A                      A
 Frequencies --   3184.8876              3295.0687              3535.9507
 Red. masses --      1.0885                 1.1149                 1.0779
 Frc consts  --      6.5053                 7.1318                 7.9400
 IR Inten    --      1.6484                27.3915                72.5206

 - Thermochemistry -
 -------------------
 Temperature   298.150 Kelvin.  Pressure   1.00000 Atm.
 Atom     1 has atomic number  8 and mass  15.99491

 Molecular mass:   180.01058 amu.
 Principal axes and moments of inertia in atomic units:
                           1         2         3
     Eigenvalues --  1105.974185729.687666835.65943
           X            1.00000   0.00287  -0.00001
           Y           -0.00287   1.00000  -0.00004
           Z            0.00001   0.00004   1.00000
 This molecule is an asymmetric top.
 Rotational symmetry number  1.
 Warning -- assumption of classical behavior for rotation
           may cause significant error
 Rotational temperatures (Kelvin)      0.07831     0.01512     0.01267
 Rotational constants (GHZ):           1.63181     0.31498     0.26402
 Zero-point vibrational energy     262285.3 (Joules/Mol)
                                   62.68768 (Kcal/Mol)
 Warning -- explicit consideration of  17 degrees of freedom as
           vibrations may cause significant error
 Vibrational temperatures:     53.73    55.67   116.89   131.47   169.84
          (Kelvin)            253.07   264.22   375.96   428.17   507.66
                              568.90   675.44   756.47   789.29   805.80
                              853.44   885.26   937.63   951.87  1136.20
                             1140.78  1192.50  1216.16  1216.74  1412.22
                             1511.83  1574.72  1686.81  1739.26  1785.73
                             1834.44  1976.93  2009.01  2274.36  2407.78
                             2533.61  2711.89  3284.11  4454.83  4582.34
                             4740.87  5087.44

 Zero-point correction=                           0.099899 (Hartree/Particle)
 Thermal correction to Energy=                    0.111379
 Thermal correction to Enthalpy=                  0.112323
 Thermal correction to Gibbs Free Energy=         0.059936
 Sum of electronic and zero-point Energies=           -923.216526
 Sum of electronic and thermal Energies=              -923.205045
 Sum of electronic and thermal Enthalpies=            -923.204101
 Sum of electronic and thermal Free Energies=         -923.256489

                     E (Thermal)             CV                S
                      KCal/Mol        Cal/Mol-Kelvin    Cal/Mol-Kelvin
 Total                   69.892             39.862            110.259
 Electronic               0.000              0.000              0.000
 Translational            0.889              2.981             41.470
 Rotational               0.889              2.981             32.138
 Vibrational             68.114             33.900             36.650
 Vibration     1          0.594              1.982              5.395
 Vibration     2          0.594              1.981              5.325
 Vibration     3          0.600              1.962              3.861
 Vibration     4          0.602              1.955              3.630
 Vibration     5          0.608              1.934              3.132
 Vibration     6          0.628              1.872              2.372
 Vibration     7          0.631              1.862              2.291
 Vibration     8          0.669              1.744              1.653
 Vibration     9          0.691              1.678              1.430
 Vibration    10          0.729              1.569              1.153
 Vibration    11          0.762              1.480              0.980
 Vibration    12          0.827              1.318              0.739
 Vibration    13          0.881              1.193              0.597
 Vibration    14          0.904              1.143              0.547
 Vibration    15          0.916              1.118              0.524
 Vibration    16          0.951              1.046              0.462
 Vibration    17          0.975              1.000              0.424

                           ! Non-Optimized Parameters !
 Normal termination of Gaussian 16 at Sat May 20 03:36:49 2023.
