 Gaussian 16, Revision A.03,
 Gaussian 16:  ES64L-G16RevA.03 25-Dec-2016

 -----------------------------
 # opt freq b3lyp/6-31g(2df,p)
 -----------------------------

 -------------------
 Title Card Required
 -------------------
 Symbolic Z-matrix:
 Charge =  0 Multiplicity = 1

 SCF Done:  E(RB3LYP) =  -761.248937173     A.U. after   16 cycles
 SCF Done:  E(RB3LYP) =  -761.303028536     A.U. after   13 cycles
 SCF Done:  E(RB3LYP) =  -761.338005969     A.U. after   13 cycles
 SCF Done:  E(RB3LYP) =  -761.353344058     A.U. after   13 cycles
 SCF Done:  E(RB3LYP) =  -761.360424663     A.U. after   13 cycles
 SCF Done:  E(RB3LYP) =  -761.362565124     A.U. after   13 cycles
 SCF Done:  E(RB3LYP) =  -761.364896954     A.U. after   13 cycles
 SCF Done:  E(RB3LYP) =  -761.367830675     A.U. after   12 cycles
 SCF Done:  E(RB3LYP) =  -761.370686042     A.U. after   13 cycles
 SCF Done:  E(RB3LYP) =  -761.371848531     A.U. after   12 cycles
 SCF Done:  E(RB3LYP) =  -761.482306880     A.U. after   12 cycles
 SCF Done:  E(RB3LYP) =  -761.482620584     A.U. after   11 cycles
 SCF Done:  E(RB3LYP) =  -761.482786117     A.U. after   11 cycles
 SCF Done:  E(RB3LYP) =  -761.482592597     A.U. after   12 cycles
 SCF Done:  E(RB3LYP) =  -761.482874515     A.U. after   12 cycles
 SCF Done:  E(RB3LYP) =  -761.482879541     A.U. after    8 cycles
 SCF Done:  E(RB3LYP) =  -761.482884043     A.U. after    9 cycles
 SCF Done:  E(RB3LYP) =  -761.482885680     A.U. after    8 cycles
 SCF Done:  E(RB3LYP) =  -761.482885836     A.U. after    7 cycles
 Optimization completed.
    -- Stationary point found.
 Normal termination of Gaussian 16 at Sat May 20 09:22:19 2023.

 ----------------------------------------------------------------------
 #N Geom=AllCheck Guess=TCheck SCRF=Check GenChk RB3LYP/6-31G(2df,p) Fr
 eq
 ----------------------------------------------------------------------

 Structure from the checkpoint file:  "OdC1CCC2dCCdCCdNCdC2OCN1O.chk"
 -------------------
 Title Card Required
 -------------------
 Charge =  0 Multiplicity = 1

                         Standard orientation:
 ---------------------------------------------------------------------
 Center     Atomic      Atomic             Coordinates (Angstroms)
 Number     Number       Type             X           Y           Z
 ---------------------------------------------------------------------
      1          8           0        3.745643   -0.652186   -0.829417
      2          6           0        2.741744   -0.614661   -0.128381
      3          6           0        1.719217   -1.733993   -0.098685
      4          6           0        0.437343   -1.472427   -0.945998
      5          6           0       -0.705479   -0.766614   -0.230204
      6          6           0       -1.609694   -1.494175    0.449411
      7          6           0       -2.747307   -1.009967    1.241315
      8          6           0       -3.701274   -0.170524    0.824904
      9          6           0       -3.815552    0.372483   -0.548539
     10          7           0       -2.983298    1.075803   -1.201996
     11          6           0       -1.761133    1.484110   -0.652777
     12          6           0       -0.732838    0.712086   -0.276584
     13          8           0        0.476290    1.359222   -0.070152
     14          6           0        1.238916    0.951353    1.060936
     15          7           0        2.535921    0.468429    0.688790
     16          8           0        3.449492    1.515004    0.477640
     17          1           0        1.437918   -1.982851    0.929214
     18          1           0        2.244110   -2.594568   -0.518235
     19          1           0        0.068406   -2.449226   -1.271041
     20          1           0        0.712608   -0.922111   -1.850855
     21          1           0       -1.475325   -2.576857    0.462994
     22          1           0       -2.851349   -1.456272    2.230526
     23          1           0       -4.546198    0.035947    1.479414
     24          1           0       -4.759954    0.145436   -1.054604
     25          1           0       -1.583892    2.555056   -0.715975
     26          1           0        0.716246    0.171189    1.619669
     27          1           0        1.396830    1.820051    1.703220
     28          1           0        4.017192    1.122237   -0.218841
 ---------------------------------------------------------------------

 SCF Done:  E(RB3LYP) =  -761.482885836     A.U. after    1 cycles

 The electronic state is 1-A.
 Alpha  occ. eigenvalues --  -19.17188 -19.16880 -19.12467 -14.40798 -14.33788
 Alpha  occ. eigenvalues --  -10.29127 -10.28273 -10.24056 -10.24025 -10.21539
 Alpha  occ. eigenvalues --  -10.21358 -10.21023 -10.20955 -10.20836 -10.20717
 Alpha  occ. eigenvalues --  -10.20676  -1.10696  -1.06207  -1.02504  -0.93711
 Alpha  occ. eigenvalues --   -0.87977  -0.84367  -0.80737  -0.77114  -0.74532
 Alpha  occ. eigenvalues --   -0.70047  -0.68963  -0.64663  -0.60723  -0.59833
 Alpha  occ. eigenvalues --   -0.57426  -0.53649  -0.52262  -0.50919  -0.50477
 Alpha  occ. eigenvalues --   -0.49969  -0.47682  -0.46322  -0.45637  -0.44644
 Alpha  occ. eigenvalues --   -0.43893  -0.43199  -0.42308  -0.40786  -0.39940
 Alpha  occ. eigenvalues --   -0.38867  -0.37357  -0.36676  -0.35370  -0.34330
 Alpha  occ. eigenvalues --   -0.33818  -0.31995  -0.30526  -0.28797  -0.27296
 Alpha  occ. eigenvalues --   -0.25943  -0.23355  -0.20823
 Alpha virt. eigenvalues --   -0.06270  -0.00789   0.00777   0.01779   0.06257
 Alpha virt. eigenvalues --    0.07966   0.09212   0.09753   0.11686   0.12606
 Alpha virt. eigenvalues --    0.12948   0.13611   0.14278   0.14889   0.15615

 Mulliken charges:
               1
     1  O   -0.399580
     2  C    0.423387
     3  C   -0.321357
     4  C   -0.294927
     5  C    0.134950
     6  C   -0.159346
     7  C   -0.097309
     8  C   -0.109111
     9  C   -0.024424
    10  N   -0.191629
    11  C   -0.146154
    12  C    0.268734
    13  O   -0.269676
    14  C   -0.053797
    15  N    0.032246
    16  O   -0.438070
    17  H    0.121367
    18  H    0.138976
    19  H    0.121349
    20  H    0.136068
    21  H    0.098088
    22  H    0.104089
    23  H    0.108768
    24  H    0.116722
    25  H    0.119511
    26  H    0.128107
    27  H    0.141838
    28  H    0.311178
 Sum of Mulliken charges =  -0.00000

 Dipole moment (field-independent basis, Debye):
    X=             -3.3006    Y=             -2.4725    Z=              2.6708  Tot=              4.9133
 Quadrupole moment (field-independent basis, Debye-Ang):
   XX=            -98.0304   YY=            -89.2360   ZZ=            -91.9587
   XY=              2.0266   XZ=             -3.2154   YZ=              0.3599

  Exact polarizability: 187.270  -3.005 127.503  -7.586  -6.230 103.802
 Approx polarizability: 268.409  -6.267 214.408 -16.245 -20.837 181.233

                      1                      2                      3
                      A                      A                      A
 Frequencies --     50.2690                75.7944                87.1610
 Red. masses --      6.7675                 6.1211                 5.0692
 Frc consts  --      0.0101                 0.0207                 0.0227
 IR Inten    --      0.6601                 0.1468                 0.2898

                      4                      5                      6
                      A                      A                      A
 Frequencies --    135.4669               147.2611               197.4214
 Red. masses --      5.3626                 5.1253                 4.8997
 Frc consts  --      0.0580                 0.0655                 0.1125
 IR Inten    --      0.9308                 1.1234                 2.7382

                      7                      8                      9
                      A                      A                      A
 Frequencies --    225.6091               247.6356               266.1460
 Red. masses --      4.2915                 4.1660                 4.0987
 Frc consts  --      0.1287                 0.1505                 0.1711
 IR Inten    --      1.9932                 3.3678                 0.8315

                     10                     11                     12
                      A                      A                      A
 Frequencies --    275.6552               302.1479               324.4136
 Red. masses --      3.3299                 3.1900                 3.6133
 Frc consts  --      0.1491                 0.1716                 0.2241
 IR Inten    --      4.7701                 1.7035                 2.5808

                     13                     14                     15
                      A                      A                      A
 Frequencies --    360.9296               375.8178               427.9995
 Red. masses --      2.8882                 4.3034                 2.9997
 Frc consts  --      0.2217                 0.3581                 0.3238
 IR Inten    --      6.5921                13.1608                15.3977

                     16                     17                     18
                      A                      A                      A
 Frequencies --    446.1250               469.8797               493.3633
 Red. masses --      2.5956                 1.4471                 2.6987
 Frc consts  --      0.3044                 0.1882                 0.3870
 IR Inten    --      2.1723                49.9761                21.8224

                     19                     20                     21
                      A                      A                      A
 Frequencies --    528.2145               593.1283               595.8336
 Red. masses --      4.7525                 4.7326                 4.6412
 Frc consts  --      0.7813                 0.9810                 0.9708
 IR Inten    --     18.5226                 4.6670                12.4097

                     22                     23                     24
                      A                      A                      A
 Frequencies --    615.3663               656.9029               686.2324
 Red. masses --      3.1730                 2.8402                 4.6553
 Frc consts  --      0.7079                 0.7221                 1.2916
 IR Inten    --     12.2664                13.8396                11.6036

                     25                     26                     27
                      A                      A                      A
 Frequencies --    730.3878               745.9499               769.7518
 Red. masses --      3.8511                 2.5921                 2.9018
 Frc consts  --      1.2104                 0.8498                 1.0130
 IR Inten    --     18.6232                24.2262                36.1525

                     28                     29                     30
                      A                      A                      A
 Frequencies --    773.9565               839.0263               880.0029
 Red. masses --      4.5075                 2.8764                 1.6624
 Frc consts  --      1.5908                 1.1930                 0.7585
 IR Inten    --     11.1293                 8.3549                20.7736

                     31                     32                     33
                      A                      A                      A
 Frequencies --    900.2562               903.0577               934.4754
 Red. masses --      1.6562                 2.3191                 2.3059
 Frc consts  --      0.7909                 1.1143                 1.1864
 IR Inten    --     41.7005                22.2982                36.5210

                     34                     35                     36
                      A                      A                      A
 Frequencies --    949.5627               978.9024               987.8730
 Red. masses --      2.7528                 3.8371                 2.5452
 Frc consts  --      1.4624                 2.1663                 1.4634
 IR Inten    --     10.6418                14.9703                 7.8839

                     37                     38                     39
                      A                      A                      A
 Frequencies --    999.7391              1005.9456              1013.9961
 Red. masses --      1.4953                 2.6316                 2.3804
 Frc consts  --      0.8805                 1.5690                 1.4420
 IR Inten    --      1.5340                11.0419                 2.6089

                     40                     41                     42
                      A                      A                      A
 Frequencies --   1050.2165              1096.2718              1105.2441
 Red. masses --      2.4045                 3.1676                 3.2012
 Frc consts  --      1.5626                 2.2429                 2.3040
 IR Inten    --      3.4889                32.5038               188.8194

                     43                     44                     45
                      A                      A                      A
 Frequencies --   1134.9510              1165.8294              1191.1926
 Red. masses --      2.5976                 2.1589                 1.3517
 Frc consts  --      1.9714                 1.7288                 1.1300
 IR Inten    --     61.7371               147.8418                19.3090

                     46                     47                     48
                      A                      A                      A
 Frequencies --   1222.6132              1234.1721              1251.0061
 Red. masses --      3.4281                 1.1194                 1.3852
 Frc consts  --      3.0191                 1.0046                 1.2773
 IR Inten    --     52.3540                 0.6953                35.8685

                     49                     50                     51
                      A                      A                      A
 Frequencies --   1314.0413              1321.2994              1338.6053
 Red. masses --      1.3198                 1.3255                 1.3106
 Frc consts  --      1.3427                 1.3635                 1.3836
 IR Inten    --     37.5608                 1.3372                 9.2642

                     52                     53                     54
                      A                      A                      A
 Frequencies --   1354.8719              1393.5767              1403.3384
 Red. masses --      1.3649                 1.5767                 1.3906
 Frc consts  --      1.4762                 1.8041                 1.6136
 IR Inten    --     11.2697                48.8941                48.2829

                     55                     56                     57
                      A                      A                      A
 Frequencies --   1406.3019              1431.2246              1437.5946
 Red. masses --      1.4253                 1.6810                 1.6055
 Frc consts  --      1.6608                 2.0288                 1.9549
 IR Inten    --      5.4273                23.5126                37.3263

                     58                     59                     60
                      A                      A                      A
 Frequencies --   1474.0557              1485.2131              1488.9509
 Red. masses --      1.1091                 1.0920                 1.0992
 Frc consts  --      1.4199                 1.4193                 1.4358
 IR Inten    --     12.8751                 4.1782                30.9542

                     61                     62                     63
                      A                      A                      A
 Frequencies --   1522.4288              1682.2979              1694.6498
 Red. masses --      1.5098                 7.6441                 8.4865
 Frc consts  --      2.0618                12.7463                14.3594
 IR Inten    --    134.1413                12.0078                 8.8854

                     64                     65                     66
                      A                      A                      A
 Frequencies --   1700.5152              1738.8073              1741.1238
 Red. masses --      6.8099                 8.4482                11.3905
 Frc consts  --     11.6025                15.0493                20.3447
 IR Inten    --     13.3299               235.8865                21.2007

                     67                     68                     69
                      A                      A                      A
 Frequencies --   3053.6851              3058.4482              3068.7321
 Red. masses --      1.0600                 1.0624                 1.0851
 Frc consts  --      5.8238                 5.8554                 6.0204
 IR Inten    --     11.0345                 5.3300                38.6915

                     70                     71                     72
                      A                      A                      A
 Frequencies --   3070.8949              3099.5842              3109.1207
 Red. masses --      1.0568                 1.1030                 1.0850
 Frc consts  --      5.8721                 6.2436                 6.1798
 IR Inten    --     19.2820                 8.1705                11.7708

                     73                     74                     75
                      A                      A                      A
 Frequencies --   3119.0240              3120.5048              3127.1527
 Red. masses --      1.1013                 1.0848                 1.1094
 Frc consts  --      6.3127                 6.2235                 6.3921
 IR Inten    --     11.5979                16.3302                 6.3062

                     76                     77                     78
                      A                      A                      A
 Frequencies --   3149.0174              3160.0770              3535.5385
 Red. masses --      1.0926                 1.0876                 1.0640
 Frc consts  --      6.3833                 6.3992                 7.8365
 IR Inten    --     22.2843                 5.8500                76.8159

 - Thermochemistry -
 -------------------
 Temperature   298.150 Kelvin.  Pressure   1.00000 Atm.
 Atom     1 has atomic number  8 and mass  15.99491

 Molecular mass:   220.08479 amu.
 Principal axes and moments of inertia in atomic units:
                           1         2         3
     Eigenvalues --  1479.738905353.481725930.71859
           X            0.99999   0.00084  -0.00499
           Y           -0.00081   0.99998   0.00620
           Z            0.00499  -0.00620   0.99997
 This molecule is an asymmetric top.
 Rotational symmetry number  1.
 Warning -- assumption of classical behavior for rotation
           may cause significant error
 Rotational temperatures (Kelvin)      0.05853     0.01618     0.01460
 Rotational constants (GHZ):           1.21963     0.33712     0.30430
 Zero-point vibrational energy     580486.9 (Joules/Mol)
                                  138.73970 (Kcal/Mol)
 Warning -- explicit consideration of  22 degrees of freedom as
           vibrations may cause significant error
 Vibrational temperatures:     72.33   109.05   125.41   194.91   211.88
          (Kelvin)            284.05   324.60   356.29   382.92   396.61
                              434.72   466.76   519.30   540.72   615.80
                              641.87   676.05   709.84   759.98   853.38
                              857.27   885.37   945.14   987.34  1050.87
                             1073.26  1107.50  1113.55  1207.17  1266.13
                             1295.27  1299.30  1344.50  1366.21  1408.42
                             1421.33  1438.40  1447.33  1458.91  1511.03
                             1577.29  1590.20  1632.94  1677.37  1713.86
                             1759.07  1775.70  1799.92  1890.61  1901.06
                             1925.95  1949.36  2005.05  2019.09  2023.35
                             2059.21  2068.38  2120.84  2136.89  2142.27
                             2190.44  2420.45  2438.22  2446.66  2501.76
                             2505.09  4393.57  4400.42  4415.22  4418.33
                             4459.61  4473.33  4487.58  4489.71  4499.28
                             4530.73  4546.65  5086.85

 Zero-point correction=                           0.221096 (Hartree/Particle)
 Thermal correction to Energy=                    0.234731
 Thermal correction to Enthalpy=                  0.235675
 Thermal correction to Gibbs Free Energy=         0.181049
 Sum of electronic and zero-point Energies=           -761.261790
 Sum of electronic and thermal Energies=              -761.248155
 Sum of electronic and thermal Enthalpies=            -761.247210
 Sum of electronic and thermal Free Energies=         -761.301837

                     E (Thermal)             CV                S
                      KCal/Mol        Cal/Mol-Kelvin    Cal/Mol-Kelvin
 Total                  147.296             53.789            114.971
 Electronic               0.000              0.000              0.000
 Translational            0.889              2.981             42.069
 Rotational               0.889              2.981             32.219
 Vibrational            145.519             47.827             40.683
 Vibration     1          0.595              1.977              4.807
 Vibration     2          0.599              1.965              3.997
 Vibration     3          0.601              1.958              3.723
 Vibration     4          0.613              1.918              2.867
 Vibration     5          0.617              1.906              2.707
 Vibration     6          0.637              1.843              2.157
 Vibration     7          0.650              1.802              1.914
 Vibration     8          0.661              1.767              1.747
 Vibration     9          0.672              1.735              1.621
 Vibration    10          0.677              1.718              1.560
 Vibration    11          0.694              1.670              1.405
 Vibration    12          0.709              1.627              1.288
 Vibration    13          0.735              1.553              1.118
 Vibration    14          0.747              1.522              1.056
 Vibration    15          0.790              1.409              0.865
 Vibration    16          0.805              1.369              0.808
 Vibration    17          0.827              1.317              0.738
 Vibration    18          0.849              1.265              0.675
 Vibration    19          0.883              1.188              0.591
 Vibration    20          0.951              1.046              0.462
 Vibration    21          0.954              1.041              0.457
 Vibration    22          0.975              0.999              0.424

 Optimization completed.
    -- Stationary point found.
 Normal termination of Gaussian 16 at Sat May 20 11:45:28 2023.
