 Gaussian 16, Revision A.03,
 Gaussian 16:  ES64L-G16RevA.03 25-Dec-2016

 -----------------------------
 # opt freq b3lyp/6-31g(2df,p)
 -----------------------------

 -------------------
 Title Card Required
 -------------------
 Symbolic Z-matrix:
 Charge =  0 Multiplicity = 1

 SCF Done:  E(RB3LYP) =  -1050.73653217     A.U. after   19 cycles
 SCF Done:  E(RB3LYP) =  -1050.78136431     A.U. after   15 cycles
 SCF Done:  E(RB3LYP) =  -1050.81424877     A.U. after   16 cycles
 SCF Done:  E(RB3LYP) =  -1050.83551577     A.U. after   15 cycles
 SCF Done:  E(RB3LYP) =  -1050.84821713     A.U. after   15 cycles
 SCF Done:  E(RB3LYP) =  -1050.85152188     A.U. after   15 cycles
 SCF Done:  E(RB3LYP) =  -1050.85389104     A.U. after   14 cycles
 SCF Done:  E(RB3LYP) =  -1050.85401038     A.U. after   14 cycles
 SCF Done:  E(RB3LYP) =  -1050.85557933     A.U. after   14 cycles
 SCF Done:  E(RB3LYP) =  -1050.85597509     A.U. after   13 cycles
 SCF Done:  E(RB3LYP) =  -1050.85631635     A.U. after   13 cycles
 SCF Done:  E(RB3LYP) =  -1050.85642016     A.U. after   12 cycles
 SCF Done:  E(RB3LYP) =  -1050.85645073     A.U. after   11 cycles
 SCF Done:  E(RB3LYP) =  -1050.85645821     A.U. after   10 cycles
 SCF Done:  E(RB3LYP) =  -1050.85646297     A.U. after    9 cycles
 SCF Done:  E(RB3LYP) =  -1050.85646505     A.U. after    9 cycles
 SCF Done:  E(RB3LYP) =  -1050.85646559     A.U. after    8 cycles
 SCF Done:  E(RB3LYP) =  -1050.85646588     A.U. after    8 cycles
 SCF Done:  E(RB3LYP) =  -1050.85646598     A.U. after    8 cycles
 Optimization completed.
    -- Stationary point found.
 Normal termination of Gaussian 16 at Wed May 17 04:23:48 2023.

 ----------------------------------------------------------------------
 #N Geom=AllCheck Guess=TCheck SCRF=Check GenChk RB3LYP/6-31G(2df,p) Fr
 eq
 ----------------------------------------------------------------------

 Structure from the checkpoint file:  "OdC1CdCd[SH]c2cc3cccc-3ccc2CdC1.chk"
 -------------------
 Title Card Required
 -------------------
 Charge =  0 Multiplicity = 1

                         Standard orientation:
 ---------------------------------------------------------------------
 Center     Atomic      Atomic             Coordinates (Angstroms)
 Number     Number       Type             X           Y           Z
 ---------------------------------------------------------------------
      1          8           0        4.746658   -1.416282    0.279346
      2          6           0        3.843406   -0.609054    0.280516
      3          6           0        4.004072    0.803979   -0.166516
      4          6           0        3.068041    1.727928   -0.432900
      5         16           0        1.349715    1.686977   -0.089212
      6          6           0       -0.115951    0.423732   -0.020500
      7          6           0       -1.314421    1.119508    0.120137
      8          6           0       -2.616447    0.643347    0.115862
      9          6           0       -3.781014    1.415362    0.256662
     10          6           0       -4.888340    0.561901    0.176433
     11          6           0       -4.459643   -0.762058   -0.017831
     12          6           0       -3.060916   -0.774337   -0.062119
     13          6           0       -2.247292   -1.885708   -0.238448
     14          6           0       -0.859645   -1.967033   -0.272851
     15          6           0        0.111389   -0.961065   -0.147069
     16          6           0        1.531420   -1.354642   -0.205285
     17          6           0        2.419066   -0.861752    0.660895
     18          1           0        5.040887    1.092419   -0.341932
     19          1           0        0.932834    2.239390   -1.241595
     20          1           0       -1.228111    2.200634    0.243250
     21          1           0       -3.805570    2.486695    0.400155
     22          1           0       -5.921961    0.875371    0.252518
     23          1           0       -5.094321   -1.631926   -0.115177
     24          1           0       -2.772548   -2.832222   -0.354442
     25          1           0       -0.453004   -2.967220   -0.397999
     26          1           0        1.868297   -1.917052   -1.074887
     27          1           0        2.062435   -0.328091    1.540816
 ---------------------------------------------------------------------

 SCF Done:  E(RB3LYP) =  -1050.85646598     A.U. after    1 cycles

 The electronic state is 1-A.
 Alpha  occ. eigenvalues --  -88.96056 -19.12581 -10.27045 -10.23689 -10.23631
 Alpha  occ. eigenvalues --  -10.22917 -10.22208 -10.21220 -10.21199 -10.21184
 Alpha  occ. eigenvalues --  -10.20852 -10.20606 -10.20459 -10.20053 -10.18768
 Alpha  occ. eigenvalues --  -10.18768 -10.18705  -8.01731  -5.98113  -5.97935
 Alpha  occ. eigenvalues --   -5.97469  -1.03451  -0.89423  -0.86975  -0.83005
 Alpha  occ. eigenvalues --   -0.81139  -0.79668  -0.76232  -0.73477  -0.71059
 Alpha  occ. eigenvalues --   -0.67653  -0.63609  -0.62150  -0.58453  -0.56003
 Alpha  occ. eigenvalues --   -0.55631  -0.53916  -0.52533  -0.50153  -0.47523
 Alpha  occ. eigenvalues --   -0.47051  -0.46841  -0.44306  -0.43716  -0.42962
 Alpha  occ. eigenvalues --   -0.42084  -0.40552  -0.39960  -0.39073  -0.38636
 Alpha  occ. eigenvalues --   -0.38314  -0.37332  -0.35714  -0.34960  -0.33505
 Alpha  occ. eigenvalues --   -0.31859  -0.28564  -0.26497  -0.25762  -0.24365
 Alpha  occ. eigenvalues --   -0.21300  -0.20985
 Alpha virt. eigenvalues --   -0.09612  -0.06129  -0.05243  -0.03457  -0.00324
 Alpha virt. eigenvalues --    0.02579   0.05883   0.06842   0.07754   0.09437
 Alpha virt. eigenvalues --    0.10158   0.11085   0.12492   0.12735   0.13524

 Mulliken charges:
               1
     1  O   -0.326982
     2  C    0.352263
     3  C   -0.194970
     4  C   -0.156155
     5  S   -0.001203
     6  C   -0.024914
     7  C   -0.192416
     8  C    0.178634
     9  C   -0.209752
    10  C   -0.103169
    11  C   -0.211123
    12  C    0.169656
    13  C   -0.144237
    14  C   -0.168456
    15  C    0.174289
    16  C   -0.144881
    17  C   -0.209750
    18  H    0.124499
    19  H    0.194401
    20  H    0.113429
    21  H    0.101336
    22  H    0.108118
    23  H    0.102055
    24  H    0.107328
    25  H    0.105019
    26  H    0.126070
    27  H    0.130911
 Sum of Mulliken charges =  -0.00000

 Dipole moment (field-independent basis, Debye):
    X=             -5.2284    Y=              0.3905    Z=             -0.6180  Tot=              5.2792
 Quadrupole moment (field-independent basis, Debye-Ang):
   XX=           -120.4078   YY=           -100.9157   ZZ=           -104.0024
   XY=              4.6619   XZ=             -0.2331   YZ=              1.8393

  Exact polarizability: 377.981  -7.405 183.879  -5.112   4.339  84.012
 Approx polarizability: 674.728 -47.168 368.445 -10.458  10.720 157.118

                      1                      2                      3
                      A                      A                      A
 Frequencies --     41.7450                68.5071                97.1363
 Red. masses --      7.3942                 4.8889                 5.2902
 Frc consts  --      0.0076                 0.0135                 0.0294
 IR Inten    --      1.4031                 0.1234                 1.6792

                      4                      5                      6
                      A                      A                      A
 Frequencies --    129.7613               138.4470               194.3961
 Red. masses --      5.2179                 4.7534                 5.3077
 Frc consts  --      0.0518                 0.0537                 0.1182
 IR Inten    --      1.9547                 0.8944                 1.5016

                      7                      8                      9
                      A                      A                      A
 Frequencies --    206.1670               226.9738               263.5319
 Red. masses --      5.1518                 5.2470                 7.3927
 Frc consts  --      0.1290                 0.1593                 0.3025
 IR Inten    --      1.8113                 6.9898                 7.6315

                     10                     11                     12
                      A                      A                      A
 Frequencies --    297.3745               311.4269               350.9846
 Red. masses --      4.3584                 3.4124                 5.9803
 Frc consts  --      0.2271                 0.1950                 0.4341
 IR Inten    --      2.2672                 3.2237                 4.9927

                     13                     14                     15
                      A                      A                      A
 Frequencies --    367.7319               381.5273               395.2379
 Red. masses --      3.7011                 3.9400                 5.8434
 Frc consts  --      0.2949                 0.3379                 0.5378
 IR Inten    --      6.6736                 9.4209                39.1377

                     16                     17                     18
                      A                      A                      A
 Frequencies --    434.0031               447.0285               485.6991
 Red. masses --      6.0001                 3.2722                 8.2462
 Frc consts  --      0.6659                 0.3853                 1.1461
 IR Inten    --     14.8865                 9.7099                 6.9977

                     19                     20                     21
                      A                      A                      A
 Frequencies --    542.0694               563.3820               585.7992
 Red. masses --      2.6176                 4.3024                 3.2392
 Frc consts  --      0.4532                 0.8046                 0.6549
 IR Inten    --      8.7544                 1.7097                 5.7264

                     22                     23                     24
                      A                      A                      A
 Frequencies --    618.1974               659.8546               693.4183
 Red. masses --      3.5108                 5.0224                 2.6296
 Frc consts  --      0.7905                 1.2884                 0.7450
 IR Inten    --     22.6896                12.8843                13.4707

                     25                     26                     27
                      A                      A                      A
 Frequencies --    712.0948               731.6356               739.6362
 Red. masses --      5.2362                 3.5156                 2.7607
 Frc consts  --      1.5644                 1.1088                 0.8898
 IR Inten    --     11.9787                16.3851                 1.8867

                     28                     29                     30
                      A                      A                      A
 Frequencies --    750.3392               780.5214               784.4750
 Red. masses --      6.0259                 1.2570                 3.3570
 Frc consts  --      1.9989                 0.4512                 1.2172
 IR Inten    --      2.2338                30.2215                 7.1564

                     31                     32                     33
                      A                      A                      A
 Frequencies --    804.6538               836.0402               850.4673
 Red. masses --      1.6524                 4.5872                 1.7587
 Frc consts  --      0.6304                 1.8891                 0.7495
 IR Inten    --      3.3418                 3.4423                 9.0749

                     34                     35                     36
                      A                      A                      A
 Frequencies --    869.3191               881.6339               920.9655
 Red. masses --      2.2000                 1.5659                 3.7112
 Frc consts  --      0.9796                 0.7171                 1.8546
 IR Inten    --     21.2294                29.7269                 4.7648

                     37                     38                     39
                      A                      A                      A
 Frequencies --    937.9667               942.1746               952.2056
 Red. masses --      1.3742                 3.4087                 1.5124
 Frc consts  --      0.7123                 1.7828                 0.8079
 IR Inten    --      0.0795                 4.7507                 4.5252

                     40                     41                     42
                      A                      A                      A
 Frequencies --   1000.1136              1005.5301              1031.0179
 Red. masses --      1.3541                 1.2235                 1.6139
 Frc consts  --      0.7980                 0.7289                 1.0108
 IR Inten    --      4.7926                17.5521                15.6328

                     43                     44                     45
                      A                      A                      A
 Frequencies --   1058.5168              1083.5677              1098.5847
 Red. masses --      1.1442                 1.5572                 2.1667
 Frc consts  --      0.7553                 1.0772                 1.5407
 IR Inten    --     38.0304                 5.1077                 9.0306

                     46                     47                     48
                      A                      A                      A
 Frequencies --   1129.7386              1199.5198              1220.2444
 Red. masses --      3.1441                 2.1859                 1.7117
 Frc consts  --      2.3643                 1.8531                 1.5017
 IR Inten    --     50.3730                 5.6914                 0.6323

                     49                     50                     51
                      A                      A                      A
 Frequencies --   1225.0549              1246.5667              1280.4182
 Red. masses --      1.3370                 2.0851                 1.6375
 Frc consts  --      1.1822                 1.9090                 1.5818
 IR Inten    --      7.8161                 5.4215                12.3090

                     52                     53                     54
                      A                      A                      A
 Frequencies --   1301.1523              1315.1664              1327.9860
 Red. masses --      2.3735                 1.3508                 1.6309
 Frc consts  --      2.3675                 1.3766                 1.6946
 IR Inten    --      2.6880                 2.8053                 3.1836

                     55                     56                     57
                      A                      A                      A
 Frequencies --   1345.3158              1426.2834              1442.1189
 Red. masses --      2.1658                 2.3801                 2.5707
 Frc consts  --      2.3095                 2.8526                 3.1500
 IR Inten    --      4.5827               104.1966                 1.5277

                     58                     59                     60
                      A                      A                      A
 Frequencies --   1476.7282              1514.7309              1559.5917
 Red. masses --      2.6142                 6.1222                 4.0762
 Frc consts  --      3.3588                 8.2762                 5.8415
 IR Inten    --     12.9402                23.2090                42.2906

                     61                     62                     63
                      A                      A                      A
 Frequencies --   1601.1644              1605.4431              1626.4032
 Red. masses --      8.2345                 5.1823                 7.4655
 Frc consts  --     12.4383                 7.8697                11.6350
 IR Inten    --     73.6335                26.4843                69.6541

                     64                     65                     66
                      A                      A                      A
 Frequencies --   1685.7196              1776.7602              2659.2741
 Red. masses --      7.1627                12.5711                 1.0391
 Frc consts  --     11.9921                23.3819                 4.3296
 IR Inten    --      5.2048               404.7535                 2.7837

                     67                     68                     69
                      A                      A                      A
 Frequencies --   3106.4318              3126.9995              3128.9410
 Red. masses --      1.0851                 1.0858                 1.0882
 Frc consts  --      6.1693                 6.2556                 6.2772
 IR Inten    --      5.4755                 9.7263                 1.7800

                     70                     71                     72
                      A                      A                      A
 Frequencies --   3139.1952              3140.5012              3162.7415
 Red. masses --      1.0863                 1.0855                 1.0899
 Frc consts  --      6.3075                 6.3075                 6.4234
 IR Inten    --      4.9535                 5.0709                14.2240

                     73                     74                     75
                      A                      A                      A
 Frequencies --   3209.7599              3228.0474              3236.8202
 Red. masses --      1.0877                 1.0935                 1.1024
 Frc consts  --      6.6023                 6.7137                 6.8051
 IR Inten    --      6.0342                 7.7941                12.0129

 - Thermochemistry -
 -------------------
 Temperature   298.150 Kelvin.  Pressure   1.00000 Atm.
 Atom     1 has atomic number  8 and mass  15.99491

 Molecular mass:   238.04524 amu.
 Principal axes and moments of inertia in atomic units:
                           1         2         3
     Eigenvalues --  1528.176417574.652918960.33130
           X            1.00000   0.00210  -0.00153
           Y           -0.00209   0.99998   0.00644
           Z            0.00154  -0.00643   0.99998
 This molecule is an asymmetric top.
 Rotational symmetry number  1.
 Warning -- assumption of classical behavior for rotation
           may cause significant error
 Rotational temperatures (Kelvin)      0.05668     0.01143     0.00967
 Rotational constants (GHZ):           1.18098     0.23826     0.20141
 Zero-point vibrational energy     518680.9 (Joules/Mol)
                                  123.96772 (Kcal/Mol)
 Warning -- explicit consideration of  22 degrees of freedom as
           vibrations may cause significant error
 Vibrational temperatures:     60.06    98.57   139.76   186.70   199.19
          (Kelvin)            279.69   296.63   326.56   379.16   427.86
                              448.07   504.99   529.08   548.93   568.66
                              624.43   643.17   698.81   779.92   810.58
                              842.83   889.45   949.38   997.67  1024.55
                             1052.66  1064.17  1079.57  1123.00  1128.68
                             1157.72  1202.88  1223.63  1250.76  1268.47
                             1325.06  1349.52  1355.58  1370.01  1438.94
                             1446.73  1483.40  1522.97  1559.01  1580.62
                             1625.44  1725.84  1755.66  1762.58  1793.53
                             1842.24  1872.07  1892.23  1910.68  1935.61
                             2052.10  2074.89  2124.68  2179.36  2243.90
                             2303.72  2309.87  2340.03  2425.37  2556.36
                             3826.10  4469.46  4499.05  4501.85  4516.60
                             4518.48  4550.48  4618.13  4644.44  4657.06

 Zero-point correction=                           0.197555 (Hartree/Particle)
 Thermal correction to Energy=                    0.211566
 Thermal correction to Enthalpy=                  0.212510
 Thermal correction to Gibbs Free Energy=         0.156648
 Sum of electronic and zero-point Energies=          -1050.658911
 Sum of electronic and thermal Energies=             -1050.644900
 Sum of electronic and thermal Enthalpies=           -1050.643956
 Sum of electronic and thermal Free Energies=        -1050.699818

                     E (Thermal)             CV                S
                      KCal/Mol        Cal/Mol-Kelvin    Cal/Mol-Kelvin
 Total                  132.760             55.907            117.572
 Electronic               0.000              0.000              0.000
 Translational            0.889              2.981             42.303
 Rotational               0.889              2.981             33.006
 Vibrational            130.982             49.945             42.263
 Vibration     1          0.594              1.980              5.175
 Vibration     2          0.598              1.969              4.196
 Vibration     3          0.603              1.951              3.511
 Vibration     4          0.612              1.924              2.950
 Vibration     5          0.614              1.915              2.825
 Vibration     6          0.635              1.848              2.185
 Vibration     7          0.641              1.831              2.077
 Vibration     8          0.651              1.800              1.903
 Vibration     9          0.670              1.740              1.638
 Vibration    10          0.691              1.679              1.432
 Vibration    11          0.700              1.652              1.355
 Vibration    12          0.728              1.573              1.162
 Vibration    13          0.740              1.539              1.089
 Vibration    14          0.751              1.510              1.033
 Vibration    15          0.762              1.480              0.980
 Vibration    16          0.795              1.396              0.846
 Vibration    17          0.806              1.367              0.805
 Vibration    18          0.842              1.282              0.695
 Vibration    19          0.897              1.157              0.561
 Vibration    20          0.919              1.110              0.517
 Vibration    21          0.943              1.062              0.475
 Vibration    22          0.978              0.993              0.419

                           ! Non-Optimized Parameters !
 Normal termination of Gaussian 16 at Wed May 17 07:03:19 2023.
