 Gaussian 16, Revision A.03,
 Gaussian 16:  ES64L-G16RevA.03 25-Dec-2016

 -----------------------------
 # opt freq b3lyp/6-31g(2df,p)
 -----------------------------

 -------------------
 Title Card Required
 -------------------
 Symbolic Z-matrix:
 Charge =  0 Multiplicity = 1

 SCF Done:  E(RB3LYP) =  -590.897144428     A.U. after   24 cycles
 SCF Done:  E(RB3LYP) =  -590.958724366     A.U. after   19 cycles
 SCF Done:  E(RB3LYP) =  -591.023295759     A.U. after   17 cycles
 SCF Done:  E(RB3LYP) =  -591.060253671     A.U. after   17 cycles
 SCF Done:  E(RB3LYP) =  -591.125679363     A.U. after   17 cycles
 SCF Done:  E(RB3LYP) =  -591.169141990     A.U. after   17 cycles
 SCF Done:  E(RB3LYP) =  -591.190617787     A.U. after   17 cycles
 SCF Done:  E(RB3LYP) =  -591.195631325     A.U. after   16 cycles
 SCF Done:  E(RB3LYP) =  -591.191891650     A.U. after   16 cycles
 SCF Done:  E(RB3LYP) =  -591.201183747     A.U. after   15 cycles
 SCF Done:  E(RB3LYP) =  -591.202344592     A.U. after   15 cycles
 SCF Done:  E(RB3LYP) =  -591.202408094     A.U. after   15 cycles
 SCF Done:  E(RB3LYP) =  -591.202649316     A.U. after   14 cycles
 SCF Done:  E(RB3LYP) =  -591.202668288     A.U. after   12 cycles
 SCF Done:  E(RB3LYP) =  -591.202677110     A.U. after   10 cycles
 SCF Done:  E(RB3LYP) =  -591.202678669     A.U. after    9 cycles
 SCF Done:  E(RB3LYP) =  -591.202679493     A.U. after    9 cycles
 Optimization completed.
    -- Stationary point found.
 Normal termination of Gaussian 16 at Thu May 18 11:48:18 2023.

 ----------------------------------------------------------------------
 #N Geom=AllCheck Guess=TCheck SCRF=Check GenChk RB3LYP/6-31G(2df,p) Fr
 eq
 ----------------------------------------------------------------------

 Structure from the checkpoint file:  "OdC1CdCc2c3ccqnc21rCdCCdC3.chk"
 -------------------
 Title Card Required
 -------------------
 Charge =  0 Multiplicity = 1

                         Standard orientation:
 ---------------------------------------------------------------------
 Center     Atomic      Atomic             Coordinates (Angstroms)
 Number     Number       Type             X           Y           Z
 ---------------------------------------------------------------------
      1          8           0       -3.400591   -1.271517   -0.287218
      2          6           0       -2.594866   -0.385655   -0.146658
      3          6           0       -2.731122    1.055207   -0.500046
      4          6           0       -1.582078    1.719204   -0.217177
      5          6           0       -0.616412    0.850546    0.431507
      6          6           0        0.701117    0.938524    0.822888
      7          6           0        1.293456   -0.211880    1.421450
      8          6           0        0.986818   -1.237507    0.495355
      9          7           0       -0.362187   -1.505245    0.216150
     10          6           0       -1.158231   -0.498291    0.366446
     11          6           0        1.908644   -1.449282   -0.526193
     12          6           0        3.056204   -0.513618   -0.793833
     13          6           0        2.557319    0.949251   -0.812832
     14          6           0        1.792455    1.654717    0.009748
     15          1           0       -3.639736    1.470870   -0.911899
     16          1           0       -1.409116    2.774876   -0.392041
     17          1           0        2.292452   -0.131670    1.834852
     18          1           0        1.565603   -2.049644   -1.365890
     19          1           0        3.828221   -0.544973   -0.018090
     20          1           0        3.536686   -0.775841   -1.736404
     21          1           0        1.886110    2.737931    0.070238
 ---------------------------------------------------------------------

 SCF Done:  E(RB3LYP) =  -591.202679493     A.U. after    3 cycles

 The electronic state is 1-A.
 Alpha  occ. eigenvalues --  -19.14166 -14.35779 -10.27838 -10.24653 -10.24225
 Alpha  occ. eigenvalues --  -10.23568 -10.23175 -10.23052 -10.23027 -10.21644
 Alpha  occ. eigenvalues --  -10.21517 -10.21503 -10.20604 -10.19799  -1.04908
 Alpha  occ. eigenvalues --   -0.97320  -0.86693  -0.85935  -0.80109  -0.77050
 Alpha  occ. eigenvalues --   -0.72390  -0.68937  -0.66092  -0.62048  -0.59625
 Alpha  occ. eigenvalues --   -0.54914  -0.52253  -0.51431  -0.49270  -0.48875
 Alpha  occ. eigenvalues --   -0.46942  -0.44693  -0.44140  -0.43444  -0.42709
 Alpha  occ. eigenvalues --   -0.42368  -0.41177  -0.39936  -0.38973  -0.37135
 Alpha  occ. eigenvalues --   -0.32426  -0.30142  -0.27974  -0.27161  -0.25606
 Alpha  occ. eigenvalues --   -0.22828  -0.19042
 Alpha virt. eigenvalues --   -0.12616  -0.08832  -0.06343  -0.00510   0.00913
 Alpha virt. eigenvalues --    0.06756   0.07992   0.09973   0.11051   0.11334
 Alpha virt. eigenvalues --    0.13027   0.15704   0.16787   0.18097   0.20385

 Mulliken charges:
               1
     1  O   -0.298331
     2  C    0.328303
     3  C   -0.204468
     4  C   -0.180209
     5  C    0.232985
     6  C    0.004690
     7  C   -0.290523
     8  C    0.250594
     9  N   -0.276656
    10  C    0.105841
    11  C   -0.111946
    12  C   -0.294726
    13  C   -0.013398
    14  C   -0.193171
    15  H    0.130602
    16  H    0.129512
    17  H    0.116368
    18  H    0.134861
    19  H    0.154439
    20  H    0.138856
    21  H    0.136378
 Sum of Mulliken charges =  -0.00000

 Dipole moment (field-independent basis, Debye):
    X=              2.8965    Y=              2.8402    Z=              0.0402  Tot=              4.0569
 Quadrupole moment (field-independent basis, Debye-Ang):
   XX=            -80.1471   YY=            -77.9377   ZZ=            -79.1079
   XY=            -12.0044   XZ=              1.1756   YZ=              1.6991

  Exact polarizability: 220.010   5.448 140.232  -7.156  -3.689  92.812
 Approx polarizability: 485.073  76.983 362.583 -71.975 -48.095 246.001

                      1                      2                      3
                      A                      A                      A
 Frequencies --     94.8063               101.5851               188.5222
 Red. masses --      8.1254                 4.1726                 4.0751
 Frc consts  --      0.0430                 0.0254                 0.0853
 IR Inten    --      1.1446                 3.4909                 0.2100

                      4                      5                      6
                      A                      A                      A
 Frequencies --    218.5433               255.6159               283.2771
 Red. masses --      3.9801                 5.0099                 6.1231
 Frc consts  --      0.1120                 0.1929                 0.2895
 IR Inten    --      5.5605                15.1592                19.5217

                      7                      8                      9
                      A                      A                      A
 Frequencies --    301.8630               354.9358               401.0835
 Red. masses --      4.8512                 3.5661                 2.5526
 Frc consts  --      0.2604                 0.2647                 0.2419
 IR Inten    --      7.9139                 5.6791                 5.4826

                     10                     11                     12
                      A                      A                      A
 Frequencies --    439.8943               454.5837               528.5184
 Red. masses --      6.6937                 4.2325                 5.2654
 Frc consts  --      0.7632                 0.5153                 0.8666
 IR Inten    --     16.4097                11.0868                 0.9403

                     13                     14                     15
                      A                      A                      A
 Frequencies --    541.4709               546.4212               593.2767
 Red. masses --      3.4617                 5.5556                 3.0364
 Frc consts  --      0.5980                 0.9773                 0.6297
 IR Inten    --     12.2288                96.2712                10.6751

                     16                     17                     18
                      A                      A                      A
 Frequencies --    604.8602               673.8485               685.6742
 Red. masses --      7.8521                 5.3916                 5.2397
 Frc consts  --      1.6926                 1.4424                 1.4514
 IR Inten    --     46.6550                97.2366                 8.5094

                     19                     20                     21
                      A                      A                      A
 Frequencies --    706.1899               715.7034               737.1659
 Red. masses --      4.8963                 2.2313                 2.2600
 Frc consts  --      1.4387                 0.6734                 0.7236
 IR Inten    --     60.7489                12.5050                14.2537

                     22                     23                     24
                      A                      A                      A
 Frequencies --    770.9741               798.3263               841.8925
 Red. masses --      3.6164                 3.9990                 3.0375
 Frc consts  --      1.2665                 1.5016                 1.2684
 IR Inten    --     28.2808                17.1749                14.2139

                     25                     26                     27
                      A                      A                      A
 Frequencies --    850.6625               867.1736               882.5413
 Red. masses --      1.9510                 2.0408                 3.3056
 Frc consts  --      0.8318                 0.9042                 1.5169
 IR Inten    --     74.2910                55.5558                31.9226

                     28                     29                     30
                      A                      A                      A
 Frequencies --    887.9330               961.2938               973.3106
 Red. masses --      3.0295                 2.2966                 1.3909
 Frc consts  --      1.4073                 1.2504                 0.7763
 IR Inten    --     38.6955                15.4682                 1.4501

                     31                     32                     33
                      A                      A                      A
 Frequencies --   1020.6736              1056.6243              1071.5505
 Red. masses --      3.9055                 2.8591                 2.4121
 Frc consts  --      2.3972                 1.8807                 1.6318
 IR Inten    --     26.1082                18.7871                13.8737

                     34                     35                     36
                      A                      A                      A
 Frequencies --   1113.5845              1147.8805              1165.1626
 Red. masses --      1.3363                 2.0115                 1.9108
 Frc consts  --      0.9763                 1.5616                 1.5284
 IR Inten    --      3.5738                 6.1687                27.3780

                     37                     38                     39
                      A                      A                      A
 Frequencies --   1178.0827              1217.5127              1245.6116
 Red. masses --      1.3868                 1.7718                 1.4620
 Frc consts  --      1.1340                 1.5475                 1.3365
 IR Inten    --      5.0143                10.6944                13.7286

                     40                     41                     42
                      A                      A                      A
 Frequencies --   1273.8752              1328.1327              1342.7937
 Red. masses --      3.1327                 1.9775                 1.8527
 Frc consts  --      2.9952                 2.0552                 1.9682
 IR Inten    --     10.6278                28.5790                 6.0668

                     43                     44                     45
                      A                      A                      A
 Frequencies --   1381.1460              1442.4570              1457.3583
 Red. masses --      2.3500                 1.9138                 1.6367
 Frc consts  --      2.6412                 2.3461                 2.0481
 IR Inten    --     11.2924                15.5471                 4.2058

                     46                     47                     48
                      A                      A                      A
 Frequencies --   1522.0628              1556.0787              1579.3977
 Red. masses --      7.9194                 6.1029                 7.7433
 Frc consts  --     10.8095                 8.7067                11.3804
 IR Inten    --      1.3691                 9.4461                58.6993

                     49                     50                     51
                      A                      A                      A
 Frequencies --   1608.5417              1817.4158              3054.2868
 Red. masses --     11.3203                12.6571                 1.0662
 Frc consts  --     17.2573                24.6315                 5.8600
 IR Inten    --     27.2779               316.0277                11.2850

                     52                     53                     54
                      A                      A                      A
 Frequencies --   3123.0256              3136.2783              3162.3404
 Red. masses --      1.0961                 1.0871                 1.0878
 Frc consts  --      6.2985                 6.3004                 6.4095
 IR Inten    --     12.7434                 1.3674                 2.1041

                     55                     56                     57
                      A                      A                      A
 Frequencies --   3178.3479              3200.6189              3244.2452
 Red. masses --      1.0893                 1.0912                 1.0992
 Frc consts  --      6.4835                 6.5858                 6.8167
 IR Inten    --     13.8027                 6.6186                 0.2555

 - Thermochemistry -
 -------------------
 Temperature   298.150 Kelvin.  Pressure   1.00000 Atm.
 Atom     1 has atomic number  8 and mass  15.99491

 Molecular mass:   181.05276 amu.
 Principal axes and moments of inertia in atomic units:
                           1         2         3
     Eigenvalues --  1131.119763018.769963628.26534
           X            0.99973  -0.02303  -0.00051
           Y            0.02303   0.99969   0.00951
           Z            0.00029  -0.00952   0.99995
 This molecule is an asymmetric top.
 Rotational symmetry number  1.
 Warning -- assumption of classical behavior for rotation
           may cause significant error
 Rotational temperatures (Kelvin)      0.07657     0.02869     0.02387
 Rotational constants (GHZ):           1.59554     0.59784     0.49741
 Zero-point vibrational energy     394092.0 (Joules/Mol)
                                   94.19024 (Kcal/Mol)
 Warning -- explicit consideration of  16 degrees of freedom as
           vibrations may cause significant error
 Vibrational temperatures:    136.41   146.16   271.24   314.44   367.77
          (Kelvin)            407.57   434.31   510.67   577.07   632.91
                              654.04   760.42   779.06   786.18   853.59
                              870.26   969.52   986.53  1016.05  1029.74
                             1060.62  1109.26  1148.61  1211.30  1223.91
                             1247.67  1269.78  1277.54  1383.09  1400.38
                             1468.52  1520.25  1541.72  1602.20  1651.54
                             1676.41  1695.00  1751.73  1792.16  1832.82
                             1910.89  1931.98  1987.16  2075.37  2096.81
                             2189.91  2238.85  2272.40  2314.33  2614.86
                             4394.44  4493.34  4512.40  4549.90  4572.93
                             4604.98  4667.75

 Zero-point correction=                           0.150102 (Hartree/Particle)
 Thermal correction to Energy=                    0.160354
 Thermal correction to Enthalpy=                  0.161298
 Thermal correction to Gibbs Free Energy=         0.114665
 Sum of electronic and zero-point Energies=           -591.052578
 Sum of electronic and thermal Energies=              -591.042326
 Sum of electronic and thermal Enthalpies=            -591.041381
 Sum of electronic and thermal Free Energies=         -591.088015

                     E (Thermal)             CV                S
                      KCal/Mol        Cal/Mol-Kelvin    Cal/Mol-Kelvin
 Total                  100.624             42.312             98.149
 Electronic               0.000              0.000              0.000
 Translational            0.889              2.981             41.487
 Rotational               0.889              2.981             30.894
 Vibrational             98.846             36.350             25.767
 Vibration     1          0.603              1.953              3.558
 Vibration     2          0.604              1.948              3.424
 Vibration     3          0.633              1.856              2.242
 Vibration     4          0.646              1.813              1.971
 Vibration     5          0.666              1.753              1.692
 Vibration     6          0.682              1.705              1.514
 Vibration     7          0.694              1.670              1.407
 Vibration     8          0.731              1.565              1.144
 Vibration     9          0.767              1.468              0.959
 Vibration    10          0.800              1.383              0.827
 Vibration    11          0.813              1.351              0.782
 Vibration    12          0.883              1.187              0.591
 Vibration    13          0.897              1.158              0.562
 Vibration    14          0.902              1.148              0.552
 Vibration    15          0.951              1.046              0.461
 Vibration    16          0.963              1.021              0.441

                           ! Non-Optimized Parameters !
 Normal termination of Gaussian 16 at Thu May 18 13:22:29 2023.
