 Gaussian 16, Revision A.03,
 Gaussian 16:  ES64L-G16RevA.03 25-Dec-2016

 -----------------------------
 # opt freq b3lyp/6-31g(2df,p)
 -----------------------------

 -------------------
 Title Card Required
 -------------------
 Symbolic Z-matrix:
 Charge =  0 Multiplicity = 1

 SCF Done:  E(RB3LYP) =  -700.402632740     A.U. after   26 cycles
 SCF Done:  E(RB3LYP) =  -700.619264741     A.U. after   22 cycles
 SCF Done:  E(RB3LYP) =  -700.890532537     A.U. after   19 cycles
 SCF Done:  E(RB3LYP) =  -701.018423175     A.U. after   21 cycles
 SCF Done:  E(RB3LYP) =  -701.155431952     A.U. after   18 cycles
 SCF Done:  E(RB3LYP) =  -701.291755687     A.U. after   18 cycles
 SCF Done:  E(RB3LYP) =  -701.367579967     A.U. after   17 cycles
 SCF Done:  E(RB3LYP) =  -701.269867703     A.U. after   31 cycles
 SCF Done:  E(RB3LYP) =  -701.441790797     A.U. after   16 cycles
 SCF Done:  E(RB3LYP) =  -701.499526470     A.U. after   16 cycles
 SCF Done:  E(RB3LYP) =  -701.796589068     A.U. after   10 cycles
 SCF Done:  E(RB3LYP) =  -701.796590144     A.U. after   10 cycles
 SCF Done:  E(RB3LYP) =  -701.796591069     A.U. after    8 cycles
 SCF Done:  E(RB3LYP) =  -701.796591798     A.U. after    9 cycles
 SCF Done:  E(RB3LYP) =  -701.796591989     A.U. after    7 cycles
 SCF Done:  E(RB3LYP) =  -701.796592167     A.U. after    7 cycles
 SCF Done:  E(RB3LYP) =  -701.796592250     A.U. after    7 cycles
 SCF Done:  E(RB3LYP) =  -701.796592292     A.U. after    7 cycles
 SCF Done:  E(RB3LYP) =  -701.796592313     A.U. after    7 cycles
 Optimization completed.
    -- Stationary point found.
 Normal termination of Gaussian 16 at Thu May 18 20:17:41 2023.

 ----------------------------------------------------------------------
 #N Geom=AllCheck Guess=TCheck SCRF=Check GenChk RB3LYP/6-31G(2df,p) Fr
 eq
 ----------------------------------------------------------------------

 Structure from the checkpoint file:  "Odc1cncncccc2ccc-2cnc1.chk"
 -------------------
 Title Card Required
 -------------------
 Charge =  0 Multiplicity = 1

                         Standard orientation:
 ---------------------------------------------------------------------
 Center     Atomic      Atomic             Coordinates (Angstroms)
 Number     Number       Type             X           Y           Z
 ---------------------------------------------------------------------
      1          8           0        5.207770   -0.926236   -1.276685
      2          6           0        3.497508   -1.445156    0.877354
      3          6           0        4.448442   -0.103769   -0.876200
      4          7           0        3.552786   -0.276783    0.247548
      5          6           0        2.769489    0.913310    0.598258
      6          7           0        1.365147    0.830993    0.579384
      7          6           0        0.243330    0.738187   -0.255839
      8          6           0       -0.995083    0.697108    0.227784
      9          6           0       -2.221104    0.562780   -0.653963
     10          6           0       -2.989888   -0.677802   -0.315390
     11          6           0       -3.785643   -1.175961    0.960984
     12          6           0       -4.058519   -2.314286    0.327134
     13          6           0       -3.269737   -1.821395   -0.939198
     14          6           0       -3.075793    1.757085   -0.509144
     15          7           0       -3.749197    2.686549   -0.376920
     16          6           0        1.788489    0.792850    1.811743
     17          1           0        4.333736    0.901517   -1.325269
     18          1           0        3.242090    1.855917    0.334219
     19          1           0        0.478120    0.706056   -1.313512
     20          1           0       -1.158778    0.742373    1.300175
     21          1           0       -1.908667    0.500134   -1.703343
     22          1           0       -4.012176   -0.749984    1.927598
     23          1           0       -4.603173   -3.216937    0.563011
     24          1           0       -3.050901   -2.237210   -1.913009
     25          1           0        2.727511   -1.314994    1.672388
 ---------------------------------------------------------------------

 SCF Done:  E(RB3LYP) =  -701.796592313     A.U. after    1 cycles

 The electronic state is 1-A.
 Alpha  occ. eigenvalues --  -19.16499 -14.43641 -14.41664 -14.34656 -10.31898
 Alpha  occ. eigenvalues --  -10.29041 -10.27814 -10.27682 -10.24978 -10.24747
 Alpha  occ. eigenvalues --  -10.23833 -10.23352 -10.22129 -10.21803 -10.21678
 Alpha  occ. eigenvalues --  -10.21225  -1.08851  -1.07235  -0.97241  -0.92430
 Alpha  occ. eigenvalues --   -0.89683  -0.86781  -0.81365  -0.72757  -0.70791
 Alpha  occ. eigenvalues --   -0.68023  -0.66876  -0.62201  -0.58952  -0.56578
 Alpha  occ. eigenvalues --   -0.56186  -0.55238  -0.54178  -0.53571  -0.51190
 Alpha  occ. eigenvalues --   -0.48886  -0.46647  -0.44867  -0.44404  -0.43869
 Alpha  occ. eigenvalues --   -0.42641  -0.41150  -0.40286  -0.38367  -0.37978
 Alpha  occ. eigenvalues --   -0.36908  -0.35438  -0.34981  -0.34467  -0.33221
 Alpha  occ. eigenvalues --   -0.30166  -0.28967  -0.26442  -0.22119  -0.21309
 Alpha virt. eigenvalues --   -0.09021  -0.07596  -0.07095   0.00354   0.00925
 Alpha virt. eigenvalues --    0.01971   0.03453   0.06504   0.07939   0.08142
 Alpha virt. eigenvalues --    0.08465   0.09138   0.10674   0.11373   0.11392

 Mulliken charges:
               1
     1  O   -0.213931
     2  C   -0.278622
     3  C    0.174707
     4  N   -0.001509
     5  C   -0.094715
     6  N    0.085132
     7  C    0.004578
     8  C   -0.073655
     9  C   -0.355544
    10  C    0.356255
    11  C   -0.175525
    12  C   -0.095520
    13  C   -0.275755
    14  C    0.282638
    15  N   -0.312705
    16  C   -0.208981
    17  H    0.096494
    18  H    0.132931
    19  H    0.137655
    20  H    0.153309
    21  H    0.140352
    22  H    0.135602
    23  H    0.130857
    24  H    0.130143
    25  H    0.125810
 Sum of Mulliken charges =  -0.00000

 Dipole moment (field-independent basis, Debye):
    X=             -2.1737    Y=              0.5715    Z=             -2.4551  Tot=              3.3286
 Quadrupole moment (field-independent basis, Debye-Ang):
   XX=           -116.6156   YY=           -101.7139   ZZ=            -92.0198
   XY=             33.8979   XZ=             -3.2601   YZ=             -0.7903

  Exact polarizability: 192.590   1.658 140.191  -9.218   3.647 117.597
 Approx polarizability: 249.595  -6.275 235.342 -15.432  18.767 197.080

                      1                      2                      3
                      A                      A                      A
 Frequencies --     11.0145                37.2999                40.8972
 Red. masses --      7.5839                 7.7176                 5.6542
 Frc consts  --      0.0005                 0.0063                 0.0056
 IR Inten    --      3.0355                 4.0220                 3.5929

                      4                      5                      6
                      A                      A                      A
 Frequencies --     54.1611                62.1142                86.3581
 Red. masses --      3.9435                 4.3674                 6.4965
 Frc consts  --      0.0068                 0.0099                 0.0285
 IR Inten    --      0.1276                 2.7658                 0.9055

                      7                      8                      9
                      A                      A                      A
 Frequencies --     94.1494               111.3834               157.2556
 Red. masses --      5.0775                 2.8715                 3.4031
 Frc consts  --      0.0265                 0.0210                 0.0496
 IR Inten    --     10.2593                 3.9248                 2.1404

                     10                     11                     12
                      A                      A                      A
 Frequencies --    188.3088               239.0473               253.2119
 Red. masses --      3.6916                 7.1200                 5.8604
 Frc consts  --      0.0771                 0.2397                 0.2214
 IR Inten    --      0.1017                 9.1958                 4.7836

                     13                     14                     15
                      A                      A                      A
 Frequencies --    284.0462               333.7454               345.0303
 Red. masses --      5.1557                 5.9566                 4.6847
 Frc consts  --      0.2451                 0.3909                 0.3286
 IR Inten    --      1.7638                 0.8421                23.7053

                     16                     17                     18
                      A                      A                      A
 Frequencies --    355.2750               382.9393               446.7126
 Red. masses --      5.3669                 5.8522                 6.5584
 Frc consts  --      0.3991                 0.5056                 0.7711
 IR Inten    --      7.1789                 0.1784                 0.4215

                     19                     20                     21
                      A                      A                      A
 Frequencies --    456.2260               493.1766               543.9060
 Red. masses --      7.4054                 6.2579                 5.3168
 Frc consts  --      0.9082                 0.8968                 0.9267
 IR Inten    --      0.9799                 1.9910                13.2795

                     22                     23                     24
                      A                      A                      A
 Frequencies --    578.6974               608.1569               627.7569
 Red. masses --      2.3722                 1.2162                 3.5514
 Frc consts  --      0.4681                 0.2650                 0.8246
 IR Inten    --     27.5320                36.7866                 3.3392

                     25                     26                     27
                      A                      A                      A
 Frequencies --    677.5307               733.1057               783.3730
 Red. masses --      3.5259                 3.9551                 1.7640
 Frc consts  --      0.9536                 1.2524                 0.6378
 IR Inten    --      0.8713                51.8615                14.6341

                     28                     29                     30
                      A                      A                      A
 Frequencies --    790.2122               810.7342               815.8230
 Red. masses --      3.7558                 3.3600                 1.4921
 Frc consts  --      1.3818                 1.3012                 0.5851
 IR Inten    --      3.8072                 2.2287                15.1853

                     31                     32                     33
                      A                      A                      A
 Frequencies --    850.9896               861.0787               913.4852
 Red. masses --      1.4301                 2.2473                 3.5926
 Frc consts  --      0.6102                 0.9817                 1.7663
 IR Inten    --      0.1427                 2.2029                 6.6989

                     34                     35                     36
                      A                      A                      A
 Frequencies --    945.6283               954.5507               981.4438
 Red. masses --      4.0214                 4.4507                 2.8438
 Frc consts  --      2.1187                 2.3894                 1.6139
 IR Inten    --     18.9522                63.8299                62.8875

                     37                     38                     39
                      A                      A                      A
 Frequencies --    986.4336               994.9235              1052.1488
 Red. masses --      1.4236                 1.3505                 1.6823
 Frc consts  --      0.8162                 0.7877                 1.0972
 IR Inten    --     24.5978                34.8201                 3.8155

                     40                     41                     42
                      A                      A                      A
 Frequencies --   1058.6935              1071.4537              1080.7212
 Red. masses --      3.2895                 1.2208                 4.0014
 Frc consts  --      2.1723                 0.8258                 2.7535
 IR Inten    --      2.3531                 0.4566                 6.1234

                     43                     44                     45
                      A                      A                      A
 Frequencies --   1133.7172              1185.7226              1200.4245
 Red. masses --      1.6377                 2.2413                 3.3084
 Frc consts  --      1.2402                 1.8566                 2.8089
 IR Inten    --      1.6392                 2.1653                 2.4760

                     46                     47                     48
                      A                      A                      A
 Frequencies --   1219.6335              1256.3679              1287.1981
 Red. masses --      1.7029                 1.5308                 1.3629
 Frc consts  --      1.4925                 1.4236                 1.3305
 IR Inten    --     15.8146                 5.9729                15.2231

                     49                     50                     51
                      A                      A                      A
 Frequencies --   1313.4037              1318.6206              1335.7535
 Red. masses --      1.6026                 1.3120                 1.7263
 Frc consts  --      1.6288                 1.3441                 1.8148
 IR Inten    --     17.7871                 3.8146                48.0570

                     52                     53                     54
                      A                      A                      A
 Frequencies --   1366.5897              1409.6142              1456.7361
 Red. masses --      1.5036                 1.6363                 1.3785
 Frc consts  --      1.6545                 1.9157                 1.7235
 IR Inten    --      4.6857                91.3718                16.2689

                     55                     56                     57
                      A                      A                      A
 Frequencies --   1619.6737              1637.2782              1702.8320
 Red. masses --      9.2926                 6.2466                 6.8848
 Frc consts  --     14.3628                 9.8659                11.7620
 IR Inten    --    294.6963                 0.8357                 1.7769

                     58                     59                     60
                      A                      A                      A
 Frequencies --   1709.2633              1883.9311              2358.0965
 Red. masses --      6.5906                 9.9666                12.6766
 Frc consts  --     11.3448                20.8414                41.5315
 IR Inten    --      1.0410               223.9889                 3.3303

                     61                     62                     63
                      A                      A                      A
 Frequencies --   2892.0245              2951.8093              3045.5584
 Red. masses --      1.0822                 1.0874                 1.0822
 Frc consts  --      5.3330                 5.5824                 5.9143
 IR Inten    --     70.8838                58.4699                 2.7969

                     64                     65                     66
                      A                      A                      A
 Frequencies --   3136.2279              3187.3061              3202.3692
 Red. masses --      1.0863                 1.0915                 1.0908
 Frc consts  --      6.2952                 6.5331                 6.5907
 IR Inten    --     19.8589                 0.9665                11.3952

                     67                     68                     69
                      A                      A                      A
 Frequencies --   3221.9423              3233.7730              3261.3516
 Red. masses --      1.0862                 1.0973                 1.1191
 Frc consts  --      6.6436                 6.7608                 7.0133
 IR Inten    --      3.9564                 3.5938                 4.4949

 - Thermochemistry -
 -------------------
 Temperature   298.150 Kelvin.  Pressure   1.00000 Atm.
 Atom     1 has atomic number  8 and mass  15.99491

 Molecular mass:   211.07456 amu.
 Principal axes and moments of inertia in atomic units:
                           1         2         3
     Eigenvalues --  1853.130508487.123739280.85097
           X            0.99987   0.01577  -0.00184
           Y           -0.01579   0.99981  -0.01160
           Z            0.00165   0.01163   0.99993
 This molecule is an asymmetric top.
 Rotational symmetry number  1.
 Warning -- assumption of classical behavior for rotation
           may cause significant error
 Rotational temperatures (Kelvin)      0.04674     0.01021     0.00933
 Rotational constants (GHZ):           0.97389     0.21264     0.19446
 Zero-point vibrational energy     464632.1 (Joules/Mol)
                                  111.04973 (Kcal/Mol)
 Warning -- explicit consideration of  23 degrees of freedom as
           vibrations may cause significant error
 Vibrational temperatures:     15.85    53.67    58.84    77.93    89.37
          (Kelvin)            124.25   135.46   160.26   226.26   270.93
                              343.94   364.32   408.68   480.19   496.42
                              511.16   550.96   642.72   656.41   709.57
                              782.56   832.62   875.00   903.20   974.82
                             1054.78  1127.10  1136.94  1166.47  1173.79
                             1224.38  1238.90  1314.30  1360.55  1373.39
                             1412.08  1419.26  1431.47  1513.81  1523.22
                             1541.58  1554.92  1631.17  1705.99  1727.14
                             1754.78  1807.63  1851.99  1889.69  1897.20
                             1921.85  1966.22  2028.12  2095.92  2330.35
                             2355.68  2450.00  2459.25  2710.56  3392.77
                             4160.98  4247.00  4381.88  4512.33  4585.82
                             4607.50  4635.66  4652.68  4692.36

 Zero-point correction=                           0.176969 (Hartree/Particle)
 Thermal correction to Energy=                    0.192971
 Thermal correction to Enthalpy=                  0.193915
 Thermal correction to Gibbs Free Energy=         0.129759
 Sum of electronic and zero-point Energies=           -701.619623
 Sum of electronic and thermal Energies=              -701.603622
 Sum of electronic and thermal Enthalpies=            -701.602677
 Sum of electronic and thermal Free Energies=         -701.666833

                     E (Thermal)             CV                S
                      KCal/Mol        Cal/Mol-Kelvin    Cal/Mol-Kelvin
 Total                  121.091             56.403            135.026
 Electronic               0.000              0.000              0.000
 Translational            0.889              2.981             41.945
 Rotational               0.889              2.981             33.345
 Vibrational            119.313             50.441             59.737
 Vibration     1          0.593              1.987              7.819
 Vibration     2          0.594              1.982              5.398
 Vibration     3          0.594              1.981              5.215
 Vibration     4          0.596              1.976              4.659
 Vibration     5          0.597              1.972              4.389
 Vibration     6          0.601              1.959              3.741
 Vibration     7          0.603              1.953              3.572
 Vibration     8          0.607              1.940              3.245
 Vibration     9          0.621              1.895              2.583
 Vibration    10          0.633              1.856              2.244
 Vibration    11          0.657              1.781              1.810
 Vibration    12          0.664              1.757              1.708
 Vibration    13          0.682              1.703              1.509
 Vibration    14          0.715              1.608              1.242
 Vibration    15          0.723              1.585              1.189
 Vibration    16          0.731              1.564              1.143
 Vibration    17          0.752              1.507              1.028
 Vibration    18          0.806              1.368              0.806
 Vibration    19          0.814              1.347              0.777
 Vibration    20          0.849              1.265              0.675
 Vibration    21          0.899              1.153              0.557
 Vibration    22          0.935              1.077              0.488
 Vibration    23          0.967              1.015              0.436

 Optimization completed.
    -- Stationary point found.
 Normal termination of Gaussian 16 at Thu May 18 21:46:02 2023.
