 Gaussian 16, Revision A.03,
 Gaussian 16:  ES64L-G16RevA.03 25-Dec-2016

 -----------------------------
 # opt freq b3lyp/6-31g(2df,p)
 -----------------------------

 -------------------
 Title Card Required
 -------------------
 Symbolic Z-matrix:
 Charge =  0 Multiplicity = 1

 SCF Done:  E(RB3LYP) =  -839.638066776     A.U. after   25 cycles
 SCF Done:  E(RB3LYP) =  -839.567601025     A.U. after   20 cycles
 SCF Done:  E(RB3LYP) =  -839.738257071     A.U. after   16 cycles
 SCF Done:  E(RB3LYP) =  -839.778809683     A.U. after   16 cycles
 SCF Done:  E(RB3LYP) =  -839.764866286     A.U. after   17 cycles
 SCF Done:  E(RB3LYP) =  -839.806840555     A.U. after   15 cycles
 SCF Done:  E(RB3LYP) =  -839.841385389     A.U. after   15 cycles
 SCF Done:  E(RB3LYP) =  -839.891514545     A.U. after   15 cycles
 SCF Done:  E(RB3LYP) =  -839.919042212     A.U. after   15 cycles
 SCF Done:  E(RB3LYP) =  -839.938400657     A.U. after   15 cycles
 SCF Done:  E(RB3LYP) =  -839.991802279     A.U. after   12 cycles
 SCF Done:  E(RB3LYP) =  -839.992267631     A.U. after   11 cycles
 SCF Done:  E(RB3LYP) =  -839.992360090     A.U. after   12 cycles
 SCF Done:  E(RB3LYP) =  -839.992393912     A.U. after   10 cycles
 SCF Done:  E(RB3LYP) =  -839.992405765     A.U. after    9 cycles
 SCF Done:  E(RB3LYP) =  -839.992409118     A.U. after    8 cycles
 SCF Done:  E(RB3LYP) =  -839.992410082     A.U. after    8 cycles
 SCF Done:  E(RB3LYP) =  -839.992410625     A.U. after    7 cycles
 SCF Done:  E(RB3LYP) =  -839.992411069     A.U. after    8 cycles
 Optimization completed.
    -- Stationary point found.
 Normal termination of Gaussian 16 at Fri May 19 14:19:20 2023.

 ----------------------------------------------------------------------
 #N Geom=AllCheck Guess=TCheck SCRF=Check GenChk RB3LYP/6-31G(2df,p) Fr
 eq
 ----------------------------------------------------------------------

 Structure from the checkpoint file:  "OdC1CqOrdCCdC2CdCC1dCNNCqCOrCC2.chk"
 -------------------
 Title Card Required
 -------------------
 Charge =  0 Multiplicity = 1

                         Standard orientation:
 ---------------------------------------------------------------------
 Center     Atomic      Atomic             Coordinates (Angstroms)
 Number     Number       Type             X           Y           Z
 ---------------------------------------------------------------------
      1          8           0       -2.416091    2.152148    1.216164
      2          6           0       -2.328346    1.216332    0.453646
      3          6           0       -3.131695   -0.067592    0.514610
      4          8           0       -3.972449   -0.202017   -0.529799
      5          6           0       -2.377154   -1.082527    1.060102
      6          6           0       -1.800506   -1.850180   -0.021254
      7          6           0       -0.466887   -1.814211   -0.337769
      8          6           0       -0.353521   -1.090310   -1.635529
      9          6           0       -0.909050    0.147863   -1.709143
     10          6           0       -1.158611    1.061171   -0.518790
     11          6           0       -0.056637    1.720023   -0.074532
     12          7           0        1.175690    1.771861   -0.704895
     13          7           0        2.346720    1.339123   -0.004707
     14          6           0        2.417451   -0.132376    0.184177
     15          6           0        3.876177   -0.435070    0.552524
     16          8           0        4.775268    0.044295   -0.418207
     17          6           0        1.425041   -0.787405    1.176302
     18          6           0        0.676507   -2.035226    0.626390
     19          1           0       -4.222998   -1.131500   -0.634405
     20          1           0       -1.731549   -0.796419    1.884542
     21          1           0       -2.447000   -1.886263   -0.894312
     22          1           0        0.103039   -1.524464   -2.527229
     23          1           0       -0.951940    0.636441   -2.684943
     24          1           0       -0.120827    2.294541    0.846439
     25          1           0        1.186347    1.340729   -1.619814
     26          1           0        2.367208    1.829619    0.886153
     27          1           0        2.255160   -0.544118   -0.818716
     28          1           0        4.016279   -1.519016    0.630666
     29          1           0        4.086103   -0.011179    1.552713
     30          1           0        4.447962    0.925558   -0.646315
     31          1           0        0.695036   -0.052123    1.522091
     32          1           0        1.981666   -1.100437    2.069768
     33          1           0        0.287602   -2.603130    1.478169
     34          1           0        1.420594   -2.693487    0.152748
 ---------------------------------------------------------------------

 SCF Done:  E(RB3LYP) =  -839.992411069     A.U. after    1 cycles

 The electronic state is 1-A.
 Alpha  occ. eigenvalues --  -19.20002 -19.12864 -19.12794 -14.37635 -14.36922
 Alpha  occ. eigenvalues --  -10.28206 -10.26379 -10.23131 -10.23119 -10.22323
 Alpha  occ. eigenvalues --  -10.21126 -10.20698 -10.20671 -10.20475 -10.20365
 Alpha  occ. eigenvalues --  -10.20024 -10.19491 -10.19293  -1.08972  -1.04028
 Alpha  occ. eigenvalues --   -1.01819  -0.99716  -0.86215  -0.85116  -0.80305
 Alpha  occ. eigenvalues --   -0.78131  -0.77419  -0.71375  -0.70761  -0.66780
 Alpha  occ. eigenvalues --   -0.63515  -0.62948  -0.61074  -0.59263  -0.54745
 Alpha  occ. eigenvalues --   -0.54308  -0.52709  -0.52123  -0.49617  -0.48708
 Alpha  occ. eigenvalues --   -0.47529  -0.47277  -0.46036  -0.45022  -0.44649
 Alpha  occ. eigenvalues --   -0.43767  -0.43267  -0.41176  -0.40908  -0.39793
 Alpha  occ. eigenvalues --   -0.39647  -0.38815  -0.38377  -0.37944  -0.36158
 Alpha  occ. eigenvalues --   -0.35681  -0.34727  -0.34005  -0.32127  -0.28645
 Alpha  occ. eigenvalues --   -0.28148  -0.26896  -0.25727  -0.24850  -0.21848
 Alpha  occ. eigenvalues --   -0.18725
 Alpha virt. eigenvalues --   -0.05485  -0.03998  -0.03280   0.00894   0.04313
 Alpha virt. eigenvalues --    0.06579   0.07717   0.08210   0.09046   0.09957
 Alpha virt. eigenvalues --    0.11139   0.12542   0.12797   0.13814   0.14587

 Mulliken charges:
               1
     1  O   -0.334711
     2  C    0.276704
     3  C    0.198955
     4  O   -0.366279
     5  C   -0.251545
     6  C   -0.165440
     7  C    0.184640
     8  C   -0.135357
     9  C   -0.207307
    10  C    0.042980
    11  C    0.030863
    12  N   -0.271808
    13  N   -0.322363
    14  C    0.052158
    15  C   -0.071085
    16  O   -0.424584
    17  C   -0.235556
    18  C   -0.310422
    19  H    0.303222
    20  H    0.122067
    21  H    0.081798
    22  H    0.094597
    23  H    0.105617
    24  H    0.132013
    25  H    0.243920
    26  H    0.235238
    27  H    0.090594
    28  H    0.109585
    29  H    0.079684
    30  H    0.285279
    31  H    0.107728
    32  H    0.097890
    33  H    0.109639
    34  H    0.111284
 Sum of Mulliken charges =   0.00000

 Dipole moment (field-independent basis, Debye):
    X=             -0.1745    Y=             -2.4824    Z=             -0.5433  Tot=              2.5472
 Quadrupole moment (field-independent basis, Debye-Ang):
   XX=           -119.6012   YY=           -109.5665   ZZ=           -101.3613
   XY=             11.1026   XZ=              9.3571   YZ=             -1.4530

  Exact polarizability: 209.851  -5.202 151.185  -5.177   2.268 133.895
 Approx polarizability: 354.581 -33.323 280.302 -24.393   8.200 237.730

                      1                      2                      3
                      A                      A                      A
 Frequencies --     48.8174                68.3061                98.3348
 Red. masses --      6.0093                 7.1243                 5.3583
 Frc consts  --      0.0084                 0.0196                 0.0305
 IR Inten    --      0.6902                 3.2991                 1.4976

                      4                      5                      6
                      A                      A                      A
 Frequencies --    122.7849               150.3221               167.4310
 Red. masses --      4.5365                 5.6604                 3.6155
 Frc consts  --      0.0403                 0.0754                 0.0597
 IR Inten    --      8.9138                 2.3048                 1.2563

                      7                      8                      9
                      A                      A                      A
 Frequencies --    185.7296               197.6889               212.9150
 Red. masses --      4.5264                 3.2358                 3.9478
 Frc consts  --      0.0920                 0.0745                 0.1054
 IR Inten    --      2.9245                 0.4357                 1.3465

                     10                     11                     12
                      A                      A                      A
 Frequencies --    250.6267               270.6204               278.5820
 Red. masses --      4.5451                 2.9485                 3.3608
 Frc consts  --      0.1682                 0.1272                 0.1537
 IR Inten    --      1.3112                 4.0225                 1.2613

                     13                     14                     15
                      A                      A                      A
 Frequencies --    306.7689               318.2715               369.1130
 Red. masses --      3.0147                 3.0643                 4.0970
 Frc consts  --      0.1672                 0.1829                 0.3289
 IR Inten    --      6.4300                 7.8208                10.5922

                     16                     17                     18
                      A                      A                      A
 Frequencies --    375.4708               399.6655               420.4421
 Red. masses --      3.8216                 4.5891                 3.2068
 Frc consts  --      0.3174                 0.4319                 0.3340
 IR Inten    --     15.1163                 0.4088                 2.7871

                     19                     20                     21
                      A                      A                      A
 Frequencies --    443.8122               452.0069               475.7053
 Red. masses --      1.8540                 3.4072                 2.4615
 Frc consts  --      0.2152                 0.4102                 0.3282
 IR Inten    --     74.9923                15.9330                24.3176

                     22                     23                     24
                      A                      A                      A
 Frequencies --    487.3442               501.1119               534.5343
 Red. masses --      2.1731                 3.0025                 1.5657
 Frc consts  --      0.3041                 0.4442                 0.2636
 IR Inten    --      9.0219                37.9330                45.8608

                     25                     26                     27
                      A                      A                      A
 Frequencies --    542.2855               580.7446               594.4066
 Red. masses --      2.1470                 4.4613                 2.7090
 Frc consts  --      0.3720                 0.8865                 0.5639
 IR Inten    --     62.7371                32.2360                11.7921

                     28                     29                     30
                      A                      A                      A
 Frequencies --    612.0489               689.3519               694.7266
 Red. masses --      3.0888                 2.0301                 3.0290
 Frc consts  --      0.6817                 0.5684                 0.8614
 IR Inten    --     19.2531               150.9004                10.0044

                     31                     32                     33
                      A                      A                      A
 Frequencies --    726.6966               748.4619               763.4652
 Red. masses --      4.3382                 4.7131                 2.0891
 Frc consts  --      1.3498                 1.5556                 0.7174
 IR Inten    --     79.4098                 8.5297                14.8387

                     34                     35                     36
                      A                      A                      A
 Frequencies --    782.2202               791.6138               827.0374
 Red. masses --      2.3010                 3.0199                 2.6347
 Frc consts  --      0.8295                 1.1150                 1.0618
 IR Inten    --     28.7302                19.7937                 6.8036

                     37                     38                     39
                      A                      A                      A
 Frequencies --    870.8022               888.6275               902.5445
 Red. masses --      2.0017                 1.6140                 1.4470
 Frc consts  --      0.8943                 0.7509                 0.6945
 IR Inten    --     17.7089                61.8230                31.0660

                     40                     41                     42
                      A                      A                      A
 Frequencies --    926.6053               939.5694               971.6735
 Red. masses --      2.3600                 2.4740                 1.9414
 Frc consts  --      1.1939                 1.2868                 1.0799
 IR Inten    --     10.9754                 3.4132               118.5523

                     43                     44                     45
                      A                      A                      A
 Frequencies --    984.0177               984.9382              1006.6958
 Red. masses --      2.2309                 1.7994                 1.3701
 Frc consts  --      1.2727                 1.0285                 0.8181
 IR Inten    --     25.4733                11.0975                96.2223

                     46                     47                     48
                      A                      A                      A
 Frequencies --   1045.9325              1077.5484              1087.4460
 Red. masses --      3.3697                 2.6338                 3.0193
 Frc consts  --      2.1719                 1.8018                 2.1036
 IR Inten    --      7.8173                83.6655                12.6685

                     49                     50                     51
                      A                      A                      A
 Frequencies --   1096.2119              1102.0947              1109.8729
 Red. masses --      4.1333                 3.2403                 2.7148
 Frc consts  --      2.9264                 2.3189                 1.9703
 IR Inten    --     93.4558                 0.7243                95.4773

                     52                     53                     54
                      A                      A                      A
 Frequencies --   1129.5512              1160.8695              1186.3917
 Red. masses --      2.3277                 2.6026                 2.1019
 Frc consts  --      1.7498                 2.0665                 1.7431
 IR Inten    --     28.4452                19.4386                17.5021

                     55                     56                     57
                      A                      A                      A
 Frequencies --   1207.8781              1219.6975              1231.6402
 Red. masses --      1.3351                 1.3409                 1.6165
 Frc consts  --      1.1476                 1.1753                 1.4448
 IR Inten    --      6.7887                18.5132                 3.6805

                     58                     59                     60
                      A                      A                      A
 Frequencies --   1248.5849              1268.3578              1290.6340
 Red. masses --      1.7657                 1.5277                 1.3458
 Frc consts  --      1.6218                 1.4480                 1.3208
 IR Inten    --     54.0671                12.2621                44.7005

                     61                     62                     63
                      A                      A                      A
 Frequencies --   1319.0091              1324.5024              1342.5013
 Red. masses --      1.2859                 1.2899                 1.2875
 Frc consts  --      1.3181                 1.3333                 1.3672
 IR Inten    --      2.4466                 2.8599                 4.0538

                     64                     65                     66
                      A                      A                      A
 Frequencies --   1359.3938              1375.3433              1379.4709
 Red. masses --      1.2731                 1.3728                 1.2318
 Frc consts  --      1.3861                 1.5299                 1.3810
 IR Inten    --      6.5693                 0.9754                 1.0150

                     67                     68                     69
                      A                      A                      A
 Frequencies --   1384.0481              1394.7589              1442.3841
 Red. masses --      1.8328                 1.8067                 1.2875
 Frc consts  --      2.0685                 2.0708                 1.5782
 IR Inten    --     52.9150                 2.5339               144.0913

                     70                     71                     72
                      A                      A                      A
 Frequencies --   1449.7075              1452.7768              1477.3874
 Red. masses --      1.5803                 1.3571                 1.0975
 Frc consts  --      1.9568                 1.6875                 1.4114
 IR Inten    --      7.9054                15.3265                 5.0511

                     73                     74                     75
                      A                      A                      A
 Frequencies --   1484.6056              1505.9132              1515.9100
 Red. masses --      1.0880                 1.1219                 4.0664
 Frc consts  --      1.4129                 1.4990                 5.5056
 IR Inten    --      7.8012                 4.4977                91.0078

                     76                     77                     78
                      A                      A                      A
 Frequencies --   1530.0446              1548.9545              1573.8147
 Red. masses --      1.3714                 3.6450                 4.1006
 Frc consts  --      1.8916                 5.1526                 5.9842
 IR Inten    --     31.5983                21.0478                 1.2803

                     79                     80                     81
                      A                      A                      A
 Frequencies --   1607.5901              1760.1054              2928.8915
 Red. masses --      2.9275                11.8623                 1.0723
 Frc consts  --      4.4576                21.6520                 5.4195
 IR Inten    --    154.9054               323.0477                57.4625

                     82                     83                     84
                      A                      A                      A
 Frequencies --   2993.3406              3017.7801              3041.9989
 Red. masses --      1.0694                 1.0716                 1.0828
 Frc consts  --      5.6453                 5.7498                 5.9034
 IR Inten    --     29.3196                27.0679                18.1081

                     85                     86                     87
                      A                      A                      A
 Frequencies --   3064.1417              3066.1635              3085.4653
 Red. masses --      1.0892                 1.0913                 1.0811
 Frc consts  --      6.0254                 6.0449                 6.0638
 IR Inten    --     29.1887                20.5099                10.8861

                     88                     89                     90
                      A                      A                      A
 Frequencies --   3097.1458              3106.3497              3123.6737
 Red. masses --      1.0907                 1.0936                 1.0843
 Frc consts  --      6.1640                 6.2174                 6.2333
 IR Inten    --     21.7165                50.3253                25.2489

                     91                     92                     93
                      A                      A                      A
 Frequencies --   3164.9697              3172.7842              3500.3438
 Red. masses --      1.0887                 1.0876                 1.0740
 Frc consts  --      6.4253                 6.4506                 7.7530
 IR Inten    --      0.6014                 5.5896                 0.8749

                     94                     95                     96
                      A                      A                      A
 Frequencies --   3578.7164              3729.7500              3741.0900
 Red. masses --      1.0743                 1.0645                 1.0648
 Frc consts  --      8.1062                 8.7250                 8.7800
 IR Inten    --     11.6693                36.1594                48.3292

 - Thermochemistry -
 -------------------
 Temperature   298.150 Kelvin.  Pressure   1.00000 Atm.
 Atom     1 has atomic number  8 and mass  15.99491

 Molecular mass:   248.11609 amu.
 Principal axes and moments of inertia in atomic units:
                           1         2         3
     Eigenvalues --  2165.504066055.148006867.21045
           X            0.99993   0.00492   0.01048
           Y           -0.00477   0.99989  -0.01425
           Z           -0.01055   0.01420   0.99984
 This molecule is an asymmetric top.
 Rotational symmetry number  1.
 Warning -- assumption of classical behavior for rotation
           may cause significant error
 Rotational temperatures (Kelvin)      0.04000     0.01430     0.01261
 Rotational constants (GHZ):           0.83340     0.29805     0.26281
 Zero-point vibrational energy     730131.6 (Joules/Mol)
                                  174.50565 (Kcal/Mol)
 Warning -- explicit consideration of  28 degrees of freedom as
           vibrations may cause significant error
 Vibrational temperatures:     70.24    98.28   141.48   176.66   216.28
          (Kelvin)            240.90   267.22   284.43   306.34   360.60
                              389.36   400.82   441.37   457.92   531.07
                              540.22   575.03   604.92   638.55   650.34
                              684.43   701.18   720.99   769.08   780.23
                              835.56   855.22   880.60   991.82   999.56
                             1045.55  1076.87  1098.46  1125.44  1138.96
                             1189.92  1252.89  1278.54  1298.56  1333.18
                             1351.83  1398.02  1415.78  1417.11  1448.41
                             1504.86  1550.35  1564.59  1577.20  1585.67
                             1596.86  1625.17  1670.23  1706.95  1737.87
                             1754.87  1772.06  1796.44  1824.88  1856.93
                             1897.76  1905.66  1931.56  1955.86  1978.81
                             1984.75  1991.34  2006.75  2075.27  2085.81
                             2090.22  2125.63  2136.02  2166.67  2181.06
                             2201.39  2228.60  2264.37  2312.96  2532.40
                             4214.02  4306.75  4341.91  4376.76  4408.62
                             4411.53  4439.30  4456.10  4469.34  4494.27
                             4553.69  4564.93  5036.21  5148.97  5366.28
                             5382.59

 Zero-point correction=                           0.278092 (Hartree/Particle)
 Thermal correction to Energy=                    0.294125
 Thermal correction to Enthalpy=                  0.295069
 Thermal correction to Gibbs Free Energy=         0.235975
 Sum of electronic and zero-point Energies=           -839.714319
 Sum of electronic and thermal Energies=              -839.698286
 Sum of electronic and thermal Enthalpies=            -839.697342
 Sum of electronic and thermal Free Energies=         -839.756436

                     E (Thermal)             CV                S
                      KCal/Mol        Cal/Mol-Kelvin    Cal/Mol-Kelvin
 Total                  184.566             64.817            124.373
 Electronic               0.000              0.000              0.000
 Translational            0.889              2.981             42.427
 Rotational               0.889              2.981             32.865
 Vibrational            182.789             58.855             49.081
 Vibration     1          0.595              1.978              4.865
 Vibration     2          0.598              1.969              4.202
 Vibration     3          0.604              1.950              3.487
 Vibration     4          0.610              1.930              3.056
 Vibration     5          0.618              1.902              2.668
 Vibration     6          0.624              1.883              2.464
 Vibration     7          0.632              1.859              2.270
 Vibration     8          0.637              1.843              2.154
 Vibration     9          0.644              1.821              2.019
 Vibration    10          0.663              1.762              1.726
 Vibration    11          0.674              1.727              1.592
 Vibration    12          0.679              1.713              1.542
 Vibration    13          0.697              1.661              1.380
 Vibration    14          0.705              1.639              1.319
 Vibration    15          0.741              1.536              1.083
 Vibration    16          0.746              1.522              1.057
 Vibration    17          0.766              1.471              0.964
 Vibration    18          0.783              1.426              0.890
 Vibration    19          0.803              1.375              0.815
 Vibration    20          0.811              1.356              0.790
 Vibration    21          0.832              1.304              0.722
 Vibration    22          0.843              1.278              0.691
 Vibration    23          0.856              1.248              0.655
 Vibration    24          0.890              1.174              0.577
 Vibration    25          0.897              1.157              0.560
 Vibration    26          0.937              1.073              0.484
 Vibration    27          0.952              1.044              0.459
 Vibration    28          0.971              1.006              0.429

 Optimization completed.
    -- Stationary point found.
 Normal termination of Gaussian 16 at Fri May 19 19:16:24 2023.
