 Gaussian 16, Revision A.03,
 Gaussian 16:  ES64L-G16RevA.03 25-Dec-2016

 -----------------------------
 # opt freq b3lyp/6-31g(2df,p)
 -----------------------------

 -------------------
 Title Card Required
 -------------------
 Symbolic Z-matrix:
 Charge =  0 Multiplicity = 1

 SCF Done:  E(RB3LYP) =  -700.686222128     A.U. after   23 cycles
 SCF Done:  E(RB3LYP) =  -700.743003805     A.U. after   17 cycles
 SCF Done:  E(RB3LYP) =  -700.802013014     A.U. after   16 cycles
 SCF Done:  E(RB3LYP) =  -700.834007073     A.U. after   15 cycles
 SCF Done:  E(RB3LYP) =  -700.854481180     A.U. after   16 cycles
 SCF Done:  E(RB3LYP) =  -700.856744867     A.U. after   15 cycles
 SCF Done:  E(RB3LYP) =  -700.862550806     A.U. after   15 cycles
 SCF Done:  E(RB3LYP) =  -700.864413632     A.U. after   14 cycles
 SCF Done:  E(RB3LYP) =  -700.867710601     A.U. after   16 cycles
 SCF Done:  E(RB3LYP) =  -700.871919748     A.U. after   16 cycles
 SCF Done:  E(RB3LYP) =  -700.885730831     A.U. after   15 cycles
 SCF Done:  E(RB3LYP) =  -700.887562554     A.U. after   12 cycles
 SCF Done:  E(RB3LYP) =  -700.888123540     A.U. after   13 cycles
 SCF Done:  E(RB3LYP) =  -700.888306392     A.U. after   12 cycles
 SCF Done:  E(RB3LYP) =  -700.888383093     A.U. after   11 cycles
 SCF Done:  E(RB3LYP) =  -700.888410109     A.U. after   11 cycles
 SCF Done:  E(RB3LYP) =  -700.888418155     A.U. after    9 cycles
 SCF Done:  E(RB3LYP) =  -700.888420020     A.U. after    8 cycles
 SCF Done:  E(RB3LYP) =  -700.888420447     A.U. after    8 cycles
 Optimization completed.
    -- Stationary point found.
 Normal termination of Gaussian 16 at Tue May 16 01:23:17 2023.

 ----------------------------------------------------------------------
 #N Geom=AllCheck Guess=TCheck SCRF=Check GenChk RB3LYP/6-31G(2df,p) Fr
 eq
 ----------------------------------------------------------------------

 Structure from the checkpoint file:  "Odc1ncc2cc3cccccnc-3c-2n1.chk"
 -------------------
 Title Card Required
 -------------------
 Charge =  0 Multiplicity = 1

                         Standard orientation:
 ---------------------------------------------------------------------
 Center     Atomic      Atomic             Coordinates (Angstroms)
 Number     Number       Type             X           Y           Z
 ---------------------------------------------------------------------
      1          8           0       -4.005305   -1.597855   -0.124151
      2          6           0       -3.173551   -0.725656   -0.106484
      3          7           0       -3.551875    0.620708   -0.352357
      4          6           0       -2.645361    1.542592   -0.319949
      5          6           0       -1.274613    1.254985   -0.046466
      6          6           0       -0.114508    1.956529    0.057002
      7          6           0        1.011403    1.046757    0.326877
      8          6           0        2.390332    1.492046    0.503824
      9          6           0        3.486228    0.920654   -0.020187
     10          6           0        3.550073   -0.233447   -0.931490
     11          6           0        2.959050   -1.424785   -0.796341
     12          6           0        2.186796   -1.872157    0.388379
     13          7           0        1.130416   -1.368637    0.879666
     14          6           0        0.522929   -0.230068    0.417524
     15          6           0       -0.956090   -0.155319    0.183215
     16          7           0       -1.800665   -1.111551    0.164977
     17          1           0       -2.964384    2.570025   -0.507165
     18          1           0        0.005304    3.027306   -0.066536
     19          1           0        2.524510    2.412966    1.068725
     20          1           0        4.440089    1.414713    0.155797
     21          1           0        4.203470   -0.091268   -1.792236
     22          1           0        3.159629   -2.200314   -1.532610
     23          1           0        2.572548   -2.767019    0.885795
 ---------------------------------------------------------------------

 SCF Done:  E(RB3LYP) =  -700.888420447     A.U. after    1 cycles

 The electronic state is 1-A.
 Alpha  occ. eigenvalues --  -19.12304 -14.36289 -14.34853 -14.32916 -10.29955
 Alpha  occ. eigenvalues --  -10.26546 -10.25601 -10.25139 -10.25132 -10.24175
 Alpha  occ. eigenvalues --  -10.22660 -10.22338 -10.22148 -10.22019 -10.22003
 Alpha  occ. eigenvalues --  -10.20959  -1.05122  -0.97612  -0.95384  -0.90389
 Alpha  occ. eigenvalues --   -0.87881  -0.83902  -0.79355  -0.74370  -0.72643
 Alpha  occ. eigenvalues --   -0.67479  -0.65897  -0.61635  -0.61061  -0.59031
 Alpha  occ. eigenvalues --   -0.54269  -0.52437  -0.50838  -0.49674  -0.48177
 Alpha  occ. eigenvalues --   -0.47214  -0.46883  -0.45642  -0.44449  -0.42766
 Alpha  occ. eigenvalues --   -0.41925  -0.41157  -0.39565  -0.37610  -0.35855
 Alpha  occ. eigenvalues --   -0.34086  -0.33106  -0.31118  -0.30948  -0.29434
 Alpha  occ. eigenvalues --   -0.27046  -0.26911  -0.24282  -0.22020
 Alpha virt. eigenvalues --   -0.13298  -0.07545  -0.03839  -0.00702   0.02160
 Alpha virt. eigenvalues --    0.03501   0.07686   0.08871   0.10790   0.11520
 Alpha virt. eigenvalues --    0.12682   0.13708   0.14763   0.15451   0.15944

 Mulliken charges:
               1
     1  O   -0.286429
     2  C    0.401396
     3  N   -0.309562
     4  C   -0.043223
     5  C    0.246829
     6  C   -0.348781
     7  C    0.241701
     8  C   -0.186410
     9  C   -0.093014
    10  C   -0.086693
    11  C   -0.125023
    12  C   -0.028904
    13  N   -0.233699
    14  C    0.098997
    15  C    0.267125
    16  N   -0.366773
    17  H    0.124384
    18  H    0.134023
    19  H    0.111256
    20  H    0.112787
    21  H    0.114949
    22  H    0.120313
    23  H    0.134749
 Sum of Mulliken charges =  -0.00000

 Dipole moment (field-independent basis, Debye):
    X=              8.0730    Y=              3.9578    Z=             -0.8074  Tot=              9.0271
 Quadrupole moment (field-independent basis, Debye-Ang):
   XX=           -100.8591   YY=            -82.5208   ZZ=            -87.9944
   XY=            -11.5032   XZ=             -3.6310   YZ=              2.5775

  Exact polarizability: 243.923   8.598 160.916  -0.729   0.794  77.071
 Approx polarizability: 423.360  65.025 329.744   3.043  -0.187 134.156

                      1                      2                      3
                      A                      A                      A
 Frequencies --     46.2317                70.6966               121.8721
 Red. masses --      7.8535                 5.8705                 6.4711
 Frc consts  --      0.0099                 0.0173                 0.0566
 IR Inten    --      0.9788                 0.5702                 1.4390

                      4                      5                      6
                      A                      A                      A
 Frequencies --    141.2865               172.2656               231.0311
 Red. masses --      6.4654                 4.6622                 4.7338
 Frc consts  --      0.0760                 0.0815                 0.1489
 IR Inten    --      0.6073                 0.3004                 1.6745

                      7                      8                      9
                      A                      A                      A
 Frequencies --    247.9244               294.4618               311.4058
 Red. masses --      4.5085                 7.0241                 4.0050
 Frc consts  --      0.1633                 0.3588                 0.2288
 IR Inten    --      3.3494                 4.4969                 0.1126

                     10                     11                     12
                      A                      A                      A
 Frequencies --    334.3072               412.6879               426.8063
 Red. masses --      3.9438                 5.8418                 3.3555
 Frc consts  --      0.2597                 0.5862                 0.3601
 IR Inten    --      0.7153                11.5194                 0.2579

                     13                     14                     15
                      A                      A                      A
 Frequencies --    447.6948               489.7213               510.5493
 Red. masses --      6.0146                 5.0163                 3.2352
 Frc consts  --      0.7103                 0.7088                 0.4969
 IR Inten    --      2.9364                 2.8099                17.2223

                     16                     17                     18
                      A                      A                      A
 Frequencies --    551.2998               578.4549               648.9749
 Red. masses --      5.6367                 6.5447                 4.4881
 Frc consts  --      1.0094                 1.2903                 1.1137
 IR Inten    --      0.8035                31.5083                 3.8957

                     19                     20                     21
                      A                      A                      A
 Frequencies --    670.1875               684.0660               715.6228
 Red. masses --      2.6376                 5.0757                 5.1596
 Frc consts  --      0.6980                 1.3994                 1.5568
 IR Inten    --     33.5504                 9.8646                 4.8323

                     22                     23                     24
                      A                      A                      A
 Frequencies --    769.2741               773.3806               784.2161
 Red. masses --      6.8169                 3.1609                 2.9557
 Frc consts  --      2.3768                 1.1139                 1.0710
 IR Inten    --     17.2898                13.3914                60.2327

                     25                     26                     27
                      A                      A                      A
 Frequencies --    793.0158               845.7455               851.1701
 Red. masses --      2.7805                 3.3544                10.7676
 Frc consts  --      1.0302                 1.4137                 4.5962
 IR Inten    --      4.7168                 2.9341                25.7741

                     28                     29                     30
                      A                      A                      A
 Frequencies --    879.8491               913.0864               921.6466
 Red. masses --      5.3170                 1.6539                 2.7677
 Frc consts  --      2.4251                 0.8124                 1.3852
 IR Inten    --      2.6051                10.7824                32.4047

                     31                     32                     33
                      A                      A                      A
 Frequencies --    938.5202               994.4022               997.5644
 Red. masses --      2.2443                 1.5216                 1.5380
 Frc consts  --      1.1647                 0.8865                 0.9017
 IR Inten    --      1.6386                 1.5342                 8.2434

                     34                     35                     36
                      A                      A                      A
 Frequencies --   1003.1350              1007.9015              1015.6754
 Red. masses --      2.3939                 1.3996                 2.6421
 Frc consts  --      1.4193                 0.8377                 1.6059
 IR Inten    --      1.2565                 2.2795                10.2654

                     37                     38                     39
                      A                      A                      A
 Frequencies --   1055.3565              1091.5568              1155.1157
 Red. masses --      8.0269                 4.4535                 1.8336
 Frc consts  --      5.2674                 3.1264                 1.4415
 IR Inten    --     27.3895                34.8834                67.0138

                     40                     41                     42
                      A                      A                      A
 Frequencies --   1234.6417              1243.9371              1256.4575
 Red. masses --      1.2499                 1.7798                 1.3909
 Frc consts  --      1.1225                 1.6226                 1.2938
 IR Inten    --      6.0812                 2.4091                 1.3362

                     43                     44                     45
                      A                      A                      A
 Frequencies --   1309.3354              1360.6952              1382.7749
 Red. masses --      2.4519                 4.4429                 1.5147
 Frc consts  --      2.4766                 4.8466                 1.7064
 IR Inten    --     34.5143                22.7119                50.1810

                     46                     47                     48
                      A                      A                      A
 Frequencies --   1411.6180              1414.9784              1452.0164
 Red. masses --      1.4475                 1.3992                 1.8233
 Frc consts  --      1.6994                 1.6505                 2.2649
 IR Inten    --      4.0788                 4.4361                25.5393

                     49                     50                     51
                      A                      A                      A
 Frequencies --   1557.7911              1591.9965              1644.6048
 Red. masses --      8.0578                 8.3913                 7.7781
 Frc consts  --     11.5209                12.5303                12.3950
 IR Inten    --    252.7862               126.6949               208.3317

                     52                     53                     54
                      A                      A                      A
 Frequencies --   1682.3308              1697.3464              1702.1385
 Red. masses --      7.4804                10.3933                 7.5298
 Frc consts  --     12.4737                17.6418                12.8535
 IR Inten    --     48.3174               148.5937                12.5445

                     55                     56                     57
                      A                      A                      A
 Frequencies --   1751.2539              1792.7073              3085.7030
 Red. masses --     11.4414                12.7415                 1.0859
 Frc consts  --     20.6742                24.1262                 6.0919
 IR Inten    --     85.6518               111.5009                24.9072

                     58                     59                     60
                      A                      A                      A
 Frequencies --   3104.7453              3122.5986              3132.4784
 Red. masses --      1.0900                 1.0831                 1.0826
 Frc consts  --      6.1907                 6.2223                 6.2591
 IR Inten    --     42.0272                 9.0893                 2.7278

                     61                     62                     63
                      A                      A                      A
 Frequencies --   3151.6071              3156.4792              3198.7374
 Red. masses --      1.0919                 1.0930                 1.0945
 Frc consts  --      6.3901                 6.4159                 6.5983
 IR Inten    --     22.9034                20.9705                 7.0192

 - Thermochemistry -
 -------------------
 Temperature   298.150 Kelvin.  Pressure   1.00000 Atm.
 Atom     1 has atomic number  8 and mass  15.99491

 Molecular mass:   209.05891 amu.
 Principal axes and moments of inertia in atomic units:
                           1         2         3
     Eigenvalues --  1402.720794976.704656028.96010
           X            0.99995  -0.00923  -0.00414
           Y            0.00927   0.99992   0.00803
           Z            0.00406  -0.00807   0.99996
 This molecule is an asymmetric top.
 Rotational symmetry number  1.
 Warning -- assumption of classical behavior for rotation
           may cause significant error
 Rotational temperatures (Kelvin)      0.06175     0.01740     0.01437
 Rotational constants (GHZ):           1.28660     0.36264     0.29935
 Zero-point vibrational energy     432672.1 (Joules/Mol)
                                  103.41112 (Kcal/Mol)
 Warning -- explicit consideration of  17 degrees of freedom as
           vibrations may cause significant error
 Vibrational temperatures:     66.52   101.72   175.35   203.28   247.85
          (Kelvin)            332.40   356.71   423.66   448.04   480.99
                              593.77   614.08   644.13   704.60   734.57
                              793.20   832.27   933.73   964.25   984.22
                             1029.62  1106.81  1112.72  1128.31  1140.97
                             1216.84  1224.64  1265.91  1313.73  1326.04
                             1350.32  1430.72  1435.27  1443.29  1450.15
                             1461.33  1518.42  1570.51  1661.95  1776.37
                             1789.75  1807.76  1883.84  1957.74  1989.50
                             2031.00  2035.84  2089.13  2241.31  2290.53
                             2366.22  2420.50  2442.10  2449.00  2519.66
                             2579.31  4439.64  4467.04  4492.72  4506.94
                             4534.46  4541.47  4602.27

 Zero-point correction=                           0.164796 (Hartree/Particle)
 Thermal correction to Energy=                    0.176620
 Thermal correction to Enthalpy=                  0.177564
 Thermal correction to Gibbs Free Energy=         0.126246
 Sum of electronic and zero-point Energies=           -700.723624
 Sum of electronic and thermal Energies=              -700.711800
 Sum of electronic and thermal Enthalpies=            -700.710856
 Sum of electronic and thermal Free Energies=         -700.762175

                     E (Thermal)             CV                S
                      KCal/Mol        Cal/Mol-Kelvin    Cal/Mol-Kelvin
 Total                  110.831             46.599            108.009
 Electronic               0.000              0.000              0.000
 Translational            0.889              2.981             41.916
 Rotational               0.889              2.981             32.109
 Vibrational            109.053             40.637             33.984
 Vibration     1          0.595              1.979              4.972
 Vibration     2          0.598              1.968              4.134
 Vibration     3          0.609              1.931              3.070
 Vibration     4          0.615              1.912              2.786
 Vibration     5          0.626              1.877              2.411
 Vibration     6          0.653              1.794              1.871
 Vibration     7          0.662              1.766              1.745
 Vibration     8          0.689              1.684              1.448
 Vibration     9          0.700              1.652              1.355
 Vibration    10          0.716              1.607              1.239
 Vibration    11          0.776              1.443              0.917
 Vibration    12          0.788              1.412              0.869
 Vibration    13          0.807              1.366              0.803
 Vibration    14          0.846              1.273              0.684
 Vibration    15          0.866              1.227              0.632
 Vibration    16          0.907              1.137              0.541
 Vibration    17          0.935              1.078              0.488

                           ! Non-Optimized Parameters !
 Normal termination of Gaussian 16 at Tue May 16 03:17:03 2023.
