 Gaussian 16, Revision A.03,
 Gaussian 16:  ES64L-G16RevA.03 25-Dec-2016

 -----------------------------
 # opt freq b3lyp/6-31g(2df,p)
 -----------------------------

 -------------------
 Title Card Required
 -------------------
 Symbolic Z-matrix:
 Charge =  0 Multiplicity = 2

 SCF Done:  E(UB3LYP) =  -683.957917246     A.U. after   28 cycles
 SCF Done:  E(UB3LYP) =  -683.986983389     A.U. after   23 cycles
 SCF Done:  E(UB3LYP) =  -684.018427094     A.U. after   35 cycles
 SCF Done:  E(UB3LYP) =  -684.033107736     A.U. after   34 cycles
 SCF Done:  E(UB3LYP) =  -684.078581390     A.U. after   25 cycles
 SCF Done:  E(UB3LYP) =  -684.096971219     A.U. after   22 cycles
 SCF Done:  E(UB3LYP) =  -684.107499878     A.U. after   21 cycles
 SCF Done:  E(UB3LYP) =  -684.110911658     A.U. after   20 cycles
 SCF Done:  E(UB3LYP) =  -684.113477785     A.U. after   21 cycles
 SCF Done:  E(UB3LYP) =  -684.116592304     A.U. after   19 cycles
 SCF Done:  E(UB3LYP) =  -684.117442230     A.U. after   20 cycles
 SCF Done:  E(UB3LYP) =  -684.117722077     A.U. after   20 cycles
 SCF Done:  E(UB3LYP) =  -684.117819278     A.U. after   15 cycles
 SCF Done:  E(UB3LYP) =  -684.117881678     A.U. after   14 cycles
 SCF Done:  E(UB3LYP) =  -684.117909308     A.U. after   13 cycles
 SCF Done:  E(UB3LYP) =  -684.117915766     A.U. after   13 cycles
 SCF Done:  E(UB3LYP) =  -684.117917713     A.U. after   12 cycles
 SCF Done:  E(UB3LYP) =  -684.117918439     A.U. after   10 cycles
 SCF Done:  E(UB3LYP) =  -684.117918690     A.U. after   10 cycles
 Optimization completed.
    -- Stationary point found.

 The electronic state is 2-A.
 Alpha  occ. eigenvalues --  -19.15405 -14.37910 -14.34827 -10.30283 -10.26316
 Alpha  occ. eigenvalues --  -10.25833 -10.24051 -10.23670 -10.23617 -10.23492
 Alpha  occ. eigenvalues --  -10.22170 -10.22082 -10.21981 -10.21710 -10.21434
 Alpha  occ. eigenvalues --  -10.20862  -1.06339  -1.01565  -0.95789  -0.88289
 Alpha  occ. eigenvalues --   -0.83782  -0.80656  -0.77503  -0.72399  -0.71564
 Alpha  occ. eigenvalues --   -0.66669  -0.63948  -0.61588  -0.57755  -0.57187
 Alpha  occ. eigenvalues --   -0.54308  -0.51610  -0.49029  -0.47559  -0.47426
 Alpha  occ. eigenvalues --   -0.46463  -0.45390  -0.44402  -0.43712  -0.43298
 Alpha  occ. eigenvalues --   -0.41858  -0.41165  -0.40255  -0.38386  -0.36689
 Alpha  occ. eigenvalues --   -0.36441  -0.34237  -0.32923  -0.30332  -0.28878
 Alpha  occ. eigenvalues --   -0.27415  -0.25722  -0.22268  -0.20943
 Alpha virt. eigenvalues --   -0.11963  -0.07550  -0.05399  -0.02865   0.05598
 Alpha virt. eigenvalues --    0.07210   0.08980   0.10120   0.10809   0.11253
 Alpha virt. eigenvalues --    0.13288   0.13757   0.14918   0.15983   0.17612

  Beta  occ. eigenvalues --  -19.15426 -14.37112 -14.34841 -10.30267 -10.26297
  Beta  occ. eigenvalues --  -10.26048 -10.23666 -10.23482 -10.23471 -10.22875
  Beta  occ. eigenvalues --  -10.22172 -10.22091 -10.21960 -10.21705 -10.21447
  Beta  occ. eigenvalues --  -10.20850  -1.06368  -1.00408  -0.95784  -0.88147
  Beta  occ. eigenvalues --   -0.83771  -0.80594  -0.77291  -0.72345  -0.71100
  Beta  occ. eigenvalues --   -0.66631  -0.63738  -0.60946  -0.57731  -0.56370
  Beta  occ. eigenvalues --   -0.54035  -0.51538  -0.48865  -0.47324  -0.46969
  Beta  occ. eigenvalues --   -0.46227  -0.45293  -0.43835  -0.43596  -0.42815
  Beta  occ. eigenvalues --   -0.41542  -0.41011  -0.39390  -0.37639  -0.36341
  Beta  occ. eigenvalues --   -0.35388  -0.34242  -0.32783  -0.29748  -0.28794
  Beta  occ. eigenvalues --   -0.27301  -0.25225  -0.21343
  Beta virt. eigenvalues --   -0.11853  -0.07889  -0.06825  -0.05215  -0.02496
  Beta virt. eigenvalues --    0.05812   0.07214   0.09737   0.10294   0.10883
  Beta virt. eigenvalues --    0.11341   0.13490   0.13933   0.15066   0.16196

 Mulliken charges and spin densities:
               1          2
     1  O   -0.310003  -0.007829
     2  C    0.335515   0.008479
     3  C   -0.301059   0.017652
     4  C    0.253077   0.000286
     5  C    0.193134   0.008897
     6  N   -0.363170  -0.007776
     7  C   -0.021207   0.006686
     8  C   -0.084371  -0.009182
     9  C   -0.107083   0.003926
    10  C   -0.145683  -0.006737
    11  C    0.251653  -0.000638
    12  C   -0.259068   0.003996
    13  C   -0.168537   0.026790
    14  C   -0.095815   0.686491
    15  N   -0.235514   0.378574
    16  C    0.210184  -0.132154
    17  H    0.142146  -0.000937
    18  H    0.113521  -0.000257
    19  H    0.107974   0.000415
    20  H    0.109329  -0.000165
    21  H    0.107599   0.000273
    22  H    0.118220   0.001650
    23  H    0.149157   0.021560
 Sum of Mulliken charges =  -0.00000   1.00000

 Dipole moment (field-independent basis, Debye):
    X=             -5.8748    Y=              1.3128    Z=             -0.0318  Tot=              6.0198
 Quadrupole moment (field-independent basis, Debye-Ang):
   XX=            -95.2468   YY=            -90.8015   ZZ=            -89.7447
   XY=              0.0515   XZ=              0.7690   YZ=             -1.3431

 Normal termination of Gaussian 16 at Wed May 17 17:49:23 2023.

 ----------------------------------------------------------------------
 #N Geom=AllCheck Guess=TCheck SCRF=Check GenChk UB3LYP/6-31G(2df,p) Fr
 eq
 ----------------------------------------------------------------------

 Structure from the checkpoint file:  "Odc1c[c]c2nccccc-2ccc2nc1-2.chk"
 -------------------
 Title Card Required
 -------------------
 Charge =  0 Multiplicity = 2

                         Standard orientation:
 ---------------------------------------------------------------------
 Center     Atomic      Atomic             Coordinates (Angstroms)
 Number     Number       Type             X           Y           Z
 ---------------------------------------------------------------------
      1          8           0        3.651461   -1.971042   -0.436559
      2          6           0        2.860368   -1.085223   -0.213752
      3          6           0        1.409729   -1.274990    0.037341
      4          6           0        0.553680   -0.251491    0.256949
      5          6           0       -0.922968   -0.347845    0.201047
      6          7           0       -1.512914   -1.485046    0.317339
      7          6           0       -2.874045   -1.700966    0.236036
      8          6           0       -3.893160   -0.850102   -0.040876
      9          6           0       -3.854250    0.567087   -0.318756
     10          6           0       -2.784320    1.389597   -0.322785
     11          6           0       -1.404004    1.039862   -0.053204
     12          6           0       -0.361143    1.902763   -0.014064
     13          6           0        0.919989    1.220358    0.376790
     14          6           0        2.262732    1.464473   -0.296778
     15          7           0        3.604246    1.406504    0.426792
     16          6           0        3.123009    0.387991   -0.218208
     17          1           0        1.030904   -2.289576   -0.040307
     18          1           0       -3.135147   -2.740498    0.417745
     19          1           0       -4.882444   -1.299688   -0.059832
     20          1           0       -4.817385    1.017612   -0.542082
     21          1           0       -2.956988    2.439175   -0.549098
     22          1           0       -0.429997    2.972908   -0.162387
     23          1           0        1.126341    1.449120    1.441089
 ---------------------------------------------------------------------

 SCF Done:  E(UB3LYP) =  -684.117918690     A.U. after    1 cycles
