 Gaussian 16, Revision A.03,
 Gaussian 16:  ES64L-G16RevA.03 25-Dec-2016

 -----------------------------
 # opt freq b3lyp/6-31g(2df,p)
 -----------------------------

 -------------------
 Title Card Required
 -------------------
 Symbolic Z-matrix:
 Charge =  0 Multiplicity = 1

 SCF Done:  E(RB3LYP) =  -1125.86594326     A.U. after   29 cycles
 SCF Done:  E(RB3LYP) =  -1125.91345712     A.U. after   20 cycles
 SCF Done:  E(RB3LYP) =  -1125.94981263     A.U. after   22 cycles
 SCF Done:  E(RB3LYP) =  -1125.97932910     A.U. after   19 cycles
 SCF Done:  E(RB3LYP) =  -1126.00938161     A.U. after   17 cycles
 SCF Done:  E(RB3LYP) =  -1126.02174062     A.U. after   15 cycles
 SCF Done:  E(RB3LYP) =  -1126.03475900     A.U. after   16 cycles
 SCF Done:  E(RB3LYP) =  -1126.03777217     A.U. after   15 cycles
 SCF Done:  E(RB3LYP) =  -1126.04155294     A.U. after   14 cycles
 SCF Done:  E(RB3LYP) =  -1126.04501175     A.U. after   15 cycles
 SCF Done:  E(RB3LYP) =  -1126.13942152     A.U. after   15 cycles
 SCF Done:  E(RB3LYP) =  -1126.13945853     A.U. after   13 cycles
 SCF Done:  E(RB3LYP) =  -1126.13948561     A.U. after   13 cycles
 SCF Done:  E(RB3LYP) =  -1126.13949392     A.U. after   13 cycles
 SCF Done:  E(RB3LYP) =  -1126.13949698     A.U. after   11 cycles
 SCF Done:  E(RB3LYP) =  -1126.13949849     A.U. after   10 cycles
 SCF Done:  E(RB3LYP) =  -1126.13949914     A.U. after    9 cycles
 SCF Done:  E(RB3LYP) =  -1126.13949924     A.U. after    8 cycles
 SCF Done:  E(RB3LYP) =  -1126.13949926     A.U. after    8 cycles
 Optimization completed.
    -- Stationary point found.
 Normal termination of Gaussian 16 at Sat May 20 03:36:05 2023.

 ----------------------------------------------------------------------
 #N Geom=AllCheck Guess=TCheck SCRF=Check GenChk RB3LYP/6-31G(2df,p) Fr
 eq
 ----------------------------------------------------------------------

 Structure from the checkpoint file:  "OdC1CdCCdC2CdCCdCCdC[SH]2C1dCOO.chk"
 -------------------
 Title Card Required
 -------------------
 Charge =  0 Multiplicity = 1

                         Standard orientation:
 ---------------------------------------------------------------------
 Center     Atomic      Atomic             Coordinates (Angstroms)
 Number     Number       Type             X           Y           Z
 ---------------------------------------------------------------------
      1          8           0        4.424802   -0.724508   -0.712794
      2          6           0        3.277950   -0.962605   -0.332076
      3          6           0        2.715687   -2.283220   -0.275548
      4          6           0        1.400331   -2.736816   -0.228522
      5          6           0        0.142183   -2.147189   -0.045186
      6          6           0       -0.190174   -0.870388    0.422610
      7          6           0       -1.399386   -0.179712    0.469769
      8          6           0       -2.593097   -0.596552   -0.143377
      9          6           0       -3.791505    0.075892   -0.033869
     10          6           0       -4.949279   -0.293786   -0.734518
     11          6           0       -6.208472    0.306999   -0.585219
     12          6           0       -6.405370    1.268036    0.402491
     13         16           0        1.117806    0.035826    1.242676
     14          6           0        2.447041    0.223660    0.091340
     15          6           0        2.787152    1.460046   -0.319913
     16          8           0        2.134211    2.562797    0.058578
     17          8           0        2.656092    3.688823   -0.678844
     18          1           0        3.468285   -3.038115   -0.480410
     19          1           0        1.325374   -3.805920   -0.422705
     20          1           0       -0.711575   -2.782425   -0.261960
     21          1           0       -1.430980    0.752509    1.026535
     22          1           0       -2.568788   -1.501597   -0.748041
     23          1           0       -3.878353    0.952941    0.603547
     24          1           0       -4.859330   -1.139738   -1.418102
     25          1           0       -6.991564   -0.068296   -1.255833
     26          1           0       -7.482252    1.359424    0.642404
     27          1           0        1.684677   -1.004855    1.905412
     28          1           0        3.631131    1.591140   -0.988551
     29          1           0        2.809256    4.308629    0.051486
 ---------------------------------------------------------------------

 SCF Done:  E(RB3LYP) =  -1126.13949926     A.U. after    1 cycles

 The electronic state is 1-A.
 Alpha  occ. eigenvalues --  -89.00782 -19.28531 -19.25615 -19.10989 -10.30448
 Alpha  occ. eigenvalues --  -10.26735 -10.25199 -10.24907 -10.21099 -10.20691
 Alpha  occ. eigenvalues --  -10.20401 -10.20185 -10.19503 -10.18435 -10.17975
 Alpha  occ. eigenvalues --  -10.16631 -10.14778  -8.06553  -6.02839  -6.02775
 Alpha  occ. eigenvalues --   -6.02351  -1.20174  -1.02166  -0.99840  -0.91073
 Alpha  occ. eigenvalues --   -0.83486  -0.81194  -0.79613  -0.77297  -0.74058
 Alpha  occ. eigenvalues --   -0.70692  -0.65734  -0.64923  -0.61559  -0.60928
 Alpha  occ. eigenvalues --   -0.58612  -0.55995  -0.54799  -0.53141  -0.51865
 Alpha  occ. eigenvalues --   -0.50949  -0.50595  -0.48195  -0.46825  -0.45184
 Alpha  occ. eigenvalues --   -0.44113  -0.42762  -0.42192  -0.41603  -0.40784
 Alpha  occ. eigenvalues --   -0.39104  -0.38469  -0.37103  -0.36933  -0.35998
 Alpha  occ. eigenvalues --   -0.35865  -0.35465  -0.33735  -0.32603  -0.29347
 Alpha  occ. eigenvalues --   -0.28001  -0.25164  -0.24253  -0.18371  -0.15919
 Alpha virt. eigenvalues --   -0.10646  -0.06700  -0.04977  -0.03317  -0.03052
 Alpha virt. eigenvalues --    0.01007   0.02725   0.03111   0.05034   0.06209
 Alpha virt. eigenvalues --    0.08590   0.10176   0.11450   0.12734   0.13140

 Mulliken charges:
               1
     1  O   -0.379412
     2  C    0.310981
     3  C   -0.290925
     4  C   -0.043255
     5  C   -0.242837
     6  C    0.162202
     7  C   -0.193249
     8  C   -0.091662
     9  C   -0.060858
    10  C   -0.027535
    11  C   -0.099150
    12  C   -0.337786
    13  S    0.072690
    14  C   -0.121017
    15  C    0.151392
    16  O   -0.145695
    17  O   -0.270503
    18  H    0.104181
    19  H    0.106370
    20  H    0.106304
    21  H    0.107917
    22  H    0.097309
    23  H    0.114437
    24  H    0.089217
    25  H    0.061930
    26  H    0.085017
    27  H    0.207880
    28  H    0.189828
    29  H    0.336229
 Sum of Mulliken charges =  -0.00000

 Dipole moment (field-independent basis, Debye):
    X=              4.1061    Y=              0.7371    Z=              1.8393  Tot=              4.5592
 Quadrupole moment (field-independent basis, Debye-Ang):
   XX=           -145.1557   YY=            -91.0884   ZZ=           -103.6963
   XY=             26.9922   XZ=             15.5020   YZ=              1.4742

  Exact polarizability: 676.743 -89.267 208.783 -18.185  17.443 108.023
 Approx polarizability:1939.842-449.792 441.686-100.450  48.711 197.080

                      1                      2                      3
                      A                      A                      A
 Frequencies --     25.8545                35.0206                48.7582
 Red. masses --      7.1481                 7.3815                 4.1642
 Frc consts  --      0.0028                 0.0053                 0.0058
 IR Inten    --      0.3974                 5.7097                 5.1986

                      4                      5                      6
                      A                      A                      A
 Frequencies --     69.6790                82.9546                95.2746
 Red. masses --      5.0087                 7.4242                 5.0003
 Frc consts  --      0.0143                 0.0301                 0.0267
 IR Inten    --      3.5945                 0.1651                 4.3234

                      7                      8                      9
                      A                      A                      A
 Frequencies --    131.7104               143.5563               162.4659
 Red. masses --      6.8269                 4.9761                 1.1431
 Frc consts  --      0.0698                 0.0604                 0.0178
 IR Inten    --      3.9384                10.5739                68.1371

                     10                     11                     12
                      A                      A                      A
 Frequencies --    176.0421               199.4619               220.8703
 Red. masses --      5.0142                 4.8690                 2.2723
 Frc consts  --      0.0916                 0.1141                 0.0653
 IR Inten    --      0.4798                 9.0621                65.3755

                     13                     14                     15
                      A                      A                      A
 Frequencies --    231.0330               245.5947               272.3301
 Red. masses --      4.9793                 4.9870                 4.4874
 Frc consts  --      0.1566                 0.1772                 0.1961
 IR Inten    --      9.4015                 0.7184                42.6125

                     16                     17                     18
                      A                      A                      A
 Frequencies --    299.0351               365.8053               384.6898
 Red. masses --      4.8655                 4.3162                 6.2818
 Frc consts  --      0.2563                 0.3403                 0.5477
 IR Inten    --      1.7365                13.4115                 3.7608

                     19                     20                     21
                      A                      A                      A
 Frequencies --    396.7854               421.0110               426.4388
 Red. masses --      3.4171                 5.6811                 3.4177
 Frc consts  --      0.3170                 0.5933                 0.3662
 IR Inten    --     27.7884                32.3585                27.3097

                     22                     23                     24
                      A                      A                      A
 Frequencies --    457.4785               474.1275               523.4935
 Red. masses --      5.0373                 4.0448                 1.2744
 Frc consts  --      0.6211                 0.5357                 0.2058
 IR Inten    --     19.7042                 3.7082               739.9236

                     25                     26                     27
                      A                      A                      A
 Frequencies --    528.1155               548.3581               587.1329
 Red. masses --      5.3144                 4.1321                 4.1005
 Frc consts  --      0.8733                 0.7321                 0.8328
 IR Inten    --     19.0976                 4.4422                84.0601

                     28                     29                     30
                      A                      A                      A
 Frequencies --    642.6120               663.2094               703.7204
 Red. masses --      3.7166                 3.7979                 2.6763
 Frc consts  --      0.9043                 0.9842                 0.7809
 IR Inten    --      8.7356                14.1861                 0.8520

                     31                     32                     33
                      A                      A                      A
 Frequencies --    716.5375               772.4468               788.7303
 Red. masses --      3.6284                 1.9586                 2.1289
 Frc consts  --      1.0976                 0.6885                 0.7803
 IR Inten    --     27.3291                46.4132                 1.1142

                     34                     35                     36
                      A                      A                      A
 Frequencies --    808.3885               835.6293               846.6176
 Red. masses --      2.2182                 1.3964                 1.4511
 Frc consts  --      0.8541                 0.5745                 0.6128
 IR Inten    --     46.1869               719.5114                43.6401

                     37                     38                     39
                      A                      A                      A
 Frequencies --    853.5266               908.6895               934.2829
 Red. masses --      1.6039                 7.4662                 1.4997
 Frc consts  --      0.6884                 3.6323                 0.7713
 IR Inten    --     41.8569                40.3521                30.8087

                     40                     41                     42
                      A                      A                      A
 Frequencies --    954.6025               975.6526               986.8253
 Red. masses --      1.5010                 1.6389                 2.0210
 Frc consts  --      0.8059                 0.9191                 1.1596
 IR Inten    --      6.6608                43.6004                 5.4976

                     43                     44                     45
                      A                      A                      A
 Frequencies --    993.3940              1013.9305              1023.6996
 Red. masses --      1.3322                 1.4214                 1.5925
 Frc consts  --      0.7745                 0.8610                 0.9833
 IR Inten    --     29.8279               298.7098                66.6540

                     46                     47                     48
                      A                      A                      A
 Frequencies --   1035.0409              1054.2593              1084.9416
 Red. masses --      3.7105                 1.1549                 2.9480
 Frc consts  --      2.3421                 0.7563                 2.0445
 IR Inten    --     63.4930                20.9189                23.9746

                     49                     50                     51
                      A                      A                      A
 Frequencies --   1125.3817              1185.1460              1206.1256
 Red. masses --      2.7472                 1.5439                 3.4408
 Frc consts  --      2.0500                 1.2776                 2.9491
 IR Inten    --     70.0965               186.0974               216.2895

                     52                     53                     54
                      A                      A                      A
 Frequencies --   1236.2369              1237.3979              1250.6287
 Red. masses --      1.3471                 1.6548                 1.9840
 Frc consts  --      1.2130                 1.4928                 1.8283
 IR Inten    --     51.1002               433.5473                 1.0419

                     55                     56                     57
                      A                      A                      A
 Frequencies --   1269.6920              1281.5973              1302.2703
 Red. masses --      1.5308                 1.5735                 1.4035
 Frc consts  --      1.4540                 1.5227                 1.4024
 IR Inten    --      3.2580                23.5254               329.7380

                     58                     59                     60
                      A                      A                      A
 Frequencies --   1315.3127              1366.0546              1428.5184
 Red. masses --      1.5135                 1.4626                 1.8651
 Frc consts  --      1.5427                 1.6081                 2.2424
 IR Inten    --     11.5971                16.1312               249.2483

                     61                     62                     63
                      A                      A                      A
 Frequencies --   1440.1078              1446.3691              1466.5780
 Red. masses --      1.2415                 2.1856                 2.3275
 Frc consts  --      1.5170                 2.6939                 2.9495
 IR Inten    --    186.5792               188.1306               667.3857

                     64                     65                     66
                      A                      A                      A
 Frequencies --   1533.1177              1556.4614              1580.3807
 Red. masses --      3.5526                 3.7368                 4.2702
 Frc consts  --      4.9197                 5.3336                 6.2838
 IR Inten    --   1234.2707               545.5813                33.3649

                     67                     68                     69
                      A                      A                      A
 Frequencies --   1603.1178              1627.4621              1685.9490
 Red. masses --      4.8217                 8.2534                 8.8134
 Frc consts  --      7.3010                12.8797                14.7598
 IR Inten    --     60.1415               136.6273               739.6454

                     70                     71                     72
                      A                      A                      A
 Frequencies --   2561.6593              2959.9457              3023.2261
 Red. masses --      1.0375                 1.0807                 1.0878
 Frc consts  --      4.0112                 5.5784                 5.8578
 IR Inten    --     13.6377               221.8590               224.2901

                     73                     74                     75
                      A                      A                      A
 Frequencies --   3120.6626              3129.4895              3140.6685
 Red. masses --      1.0882                 1.0841                 1.0879
 Frc consts  --      6.2437                 6.2557                 6.3225
 IR Inten    --     39.6628                15.9888                 7.3566

                     76                     77                     78
                      A                      A                      A
 Frequencies --   3162.4773              3165.7600              3167.3154
 Red. masses --      1.0878                 1.0865                 1.0860
 Frc consts  --      6.4102                 6.4157                 6.4192
 IR Inten    --      1.6717                 0.8022                13.4375

                     79                     80                     81
                      A                      A                      A
 Frequencies --   3179.1670              3212.4276              3747.1425
 Red. masses --      1.0881                 1.0907                 1.0685
 Frc consts  --      6.4798                 6.6318                 8.8398
 IR Inten    --     11.0864                20.4074               120.0006

 - Thermochemistry -
 -------------------
 Temperature   298.150 Kelvin.  Pressure   1.00000 Atm.
 Atom     1 has atomic number  8 and mass  15.99491

 Molecular mass:   248.05072 amu.
 Principal axes and moments of inertia in atomic units:
                           1         2         3
     Eigenvalues --  2750.331339855.59924**********
           X            1.00000  -0.00111   0.00262
           Y            0.00109   0.99995   0.00965
           Z           -0.00263  -0.00964   0.99995
 This molecule is an asymmetric top.
 Rotational symmetry number  1.
 Warning -- assumption of classical behavior for rotation
           may cause significant error
 Rotational temperatures (Kelvin)      0.03149     0.00879     0.00727
 Rotational constants (GHZ):           0.65619     0.18312     0.15156
 Zero-point vibrational energy     555448.0 (Joules/Mol)
                                  132.75527 (Kcal/Mol)
 Warning -- explicit consideration of  27 degrees of freedom as
           vibrations may cause significant error
 Vibrational temperatures:     37.20    50.39    70.15   100.25   119.35
          (Kelvin)            137.08   189.50   206.55   233.75   253.29
                              286.98   317.78   332.41   353.36   391.82
                              430.24   526.31   553.48   570.89   605.74
                              613.55   658.21   682.16   753.19   759.84
                              788.97   844.75   924.58   954.21  1012.50
                             1030.94  1111.38  1134.81  1163.09  1202.28
                             1218.09  1228.03  1307.40  1344.22  1373.46
                             1403.75  1419.82  1429.27  1458.82  1472.88
                             1489.19  1516.84  1560.99  1619.17  1705.16
                             1735.35  1778.67  1780.34  1799.38  1826.80
                             1843.93  1873.68  1892.44  1965.45  2055.32
                             2071.99  2081.00  2110.08  2205.81  2239.40
                             2273.82  2306.53  2341.55  2425.70  3685.66
                             4258.70  4349.75  4489.94  4502.64  4518.72
                             4550.10  4554.82  4557.06  4574.11  4621.97
                             5391.30

 Zero-point correction=                           0.211559 (Hartree/Particle)
 Thermal correction to Energy=                    0.229183
 Thermal correction to Enthalpy=                  0.230127
 Thermal correction to Gibbs Free Energy=         0.164319
 Sum of electronic and zero-point Energies=          -1125.927940
 Sum of electronic and thermal Energies=             -1125.910316
 Sum of electronic and thermal Enthalpies=           -1125.909372
 Sum of electronic and thermal Free Energies=        -1125.975180

                     E (Thermal)             CV                S
                      KCal/Mol        Cal/Mol-Kelvin    Cal/Mol-Kelvin
 Total                  143.814             64.650            138.504
 Electronic               0.000              0.000              0.000
 Translational            0.889              2.981             42.426
 Rotational               0.889              2.981             34.134
 Vibrational            142.037             58.688             61.945
 Vibration     1          0.593              1.985              6.124
 Vibration     2          0.594              1.982              5.523
 Vibration     3          0.595              1.978              4.867
 Vibration     4          0.598              1.969              4.162
 Vibration     5          0.600              1.961              3.820
 Vibration     6          0.603              1.953              3.549
 Vibration     7          0.612              1.922              2.921
 Vibration     8          0.616              1.910              2.756
 Vibration     9          0.623              1.888              2.521
 Vibration    10          0.628              1.872              2.370
 Vibration    11          0.638              1.841              2.138
 Vibration    12          0.648              1.809              1.952
 Vibration    13          0.653              1.794              1.871
 Vibration    14          0.660              1.770              1.762
 Vibration    15          0.675              1.724              1.581
 Vibration    16          0.692              1.676              1.422
 Vibration    17          0.739              1.543              1.097
 Vibration    18          0.754              1.503              1.021
 Vibration    19          0.763              1.477              0.975
 Vibration    20          0.784              1.425              0.889
 Vibration    21          0.788              1.413              0.870
 Vibration    22          0.816              1.344              0.773
 Vibration    23          0.831              1.307              0.726
 Vibration    24          0.878              1.198              0.602
 Vibration    25          0.883              1.188              0.591
 Vibration    26          0.904              1.143              0.548
 Vibration    27          0.944              1.059              0.472

 Optimization completed.
    -- Stationary point found.
 Normal termination of Gaussian 16 at Sat May 20 05:48:49 2023.
