 Gaussian 16, Revision A.03,
 Gaussian 16:  ES64L-G16RevA.03 25-Dec-2016

 -----------------------------
 # opt freq b3lyp/6-31g(2df,p)
 -----------------------------

 -------------------
 Title Card Required
 -------------------
 Symbolic Z-matrix:
 Charge =  0 Multiplicity = 1

 SCF Done:  E(RB3LYP) =  -722.589324370     A.U. after   24 cycles
 SCF Done:  E(RB3LYP) =  -722.648596979     A.U. after   19 cycles
 SCF Done:  E(RB3LYP) =  -722.691400851     A.U. after   26 cycles
 SCF Done:  E(RB3LYP) =  -722.740681325     A.U. after   17 cycles
 SCF Done:  E(RB3LYP) =  -722.783076832     A.U. after   16 cycles
 SCF Done:  E(RB3LYP) =  -722.817328796     A.U. after   15 cycles
 SCF Done:  E(RB3LYP) =  -722.855772271     A.U. after   16 cycles
 SCF Done:  E(RB3LYP) =  -722.867501646     A.U. after   15 cycles
 SCF Done:  E(RB3LYP) =  -722.873441560     A.U. after   15 cycles
 SCF Done:  E(RB3LYP) =  -722.875291004     A.U. after   14 cycles
 SCF Done:  E(RB3LYP) =  -722.880129700     A.U. after   13 cycles
 SCF Done:  E(RB3LYP) =  -722.880171635     A.U. after   12 cycles
 SCF Done:  E(RB3LYP) =  -722.880178053     A.U. after   10 cycles
 SCF Done:  E(RB3LYP) =  -722.880179697     A.U. after    9 cycles
 SCF Done:  E(RB3LYP) =  -722.880180387     A.U. after    9 cycles
 SCF Done:  E(RB3LYP) =  -722.880180674     A.U. after    8 cycles
 SCF Done:  E(RB3LYP) =  -722.880180806     A.U. after    8 cycles
 SCF Done:  E(RB3LYP) =  -722.880180910     A.U. after    8 cycles
 SCF Done:  E(RB3LYP) =  -722.880180963     A.U. after    7 cycles
 Optimization completed.
    -- Stationary point found.
 Normal termination of Gaussian 16 at Wed May 17 08:42:57 2023.

 ----------------------------------------------------------------------
 #N Geom=AllCheck Guess=TCheck SCRF=Check GenChk RB3LYP/6-31G(2df,p) Fr
 eq
 ----------------------------------------------------------------------

 Structure from the checkpoint file:  "OdC1CdC2CdNC3dCCdCCdCC3dCdNC2dC1.chk"
 -------------------
 Title Card Required
 -------------------
 Charge =  0 Multiplicity = 1

                         Standard orientation:
 ---------------------------------------------------------------------
 Center     Atomic      Atomic             Coordinates (Angstroms)
 Number     Number       Type             X           Y           Z
 ---------------------------------------------------------------------
      1          8           0       -5.366234   -0.071014    0.296035
      2          6           0       -4.163359   -0.017669    0.151061
      3          6           0       -3.205921   -1.176892    0.383062
      4          6           0       -1.963340   -0.752820    0.142404
      5          6           0       -0.610108   -1.280780    0.345743
      6          7           0        0.259272   -1.088810   -0.569546
      7          6           0        1.590886   -0.721092   -0.296119
      8          6           0        2.659143   -1.542398   -0.297450
      9          6           0        4.049563   -1.183210   -0.125495
     10          6           0        4.586236    0.007816    0.224228
     11          6           0        3.911809    1.255979    0.521996
     12          6           0        2.609193    1.585791    0.391122
     13          6           0        1.524687    0.756391   -0.097758
     14          6           0        0.269043    1.172346   -0.339369
     15          7           0       -0.901792    1.395896   -0.607536
     16          6           0       -2.044483    0.742298   -0.248233
     17          6           0       -3.334752    1.141670   -0.237142
     18          1           0       -3.535274   -2.159292    0.692092
     19          1           0       -0.325391   -1.559832    1.371256
     20          1           0        2.447175   -2.595207   -0.458896
     21          1           0        4.746296   -2.003077   -0.279381
     22          1           0        5.668051    0.044524    0.316647
     23          1           0        4.560407    2.043994    0.895313
     24          1           0        2.320103    2.596660    0.666146
     25          1           0       -3.725446    2.126159   -0.440185
 ---------------------------------------------------------------------

 SCF Done:  E(RB3LYP) =  -722.880180963     A.U. after    1 cycles

 The electronic state is 1-A.
 Alpha  occ. eigenvalues --  -19.13166 -14.38443 -14.36464 -10.27786 -10.27158
 Alpha  occ. eigenvalues --  -10.26888 -10.26264 -10.25618 -10.23101 -10.23011
 Alpha  occ. eigenvalues --  -10.21350 -10.21066 -10.20225 -10.20065 -10.19642
 Alpha  occ. eigenvalues --  -10.19558 -10.18427  -1.03706  -0.99914  -0.96151
 Alpha  occ. eigenvalues --   -0.87687  -0.84704  -0.80233  -0.79136  -0.75662
 Alpha  occ. eigenvalues --   -0.71477  -0.70552  -0.67097  -0.63242  -0.58903
 Alpha  occ. eigenvalues --   -0.57343  -0.55713  -0.55177  -0.53694  -0.51915
 Alpha  occ. eigenvalues --   -0.48613  -0.47515  -0.47067  -0.45737  -0.44208
 Alpha  occ. eigenvalues --   -0.43662  -0.42255  -0.41811  -0.41249  -0.40584
 Alpha  occ. eigenvalues --   -0.38374  -0.36902  -0.36175  -0.35688  -0.33979
 Alpha  occ. eigenvalues --   -0.32745  -0.30792  -0.29039  -0.26469  -0.24989
 Alpha  occ. eigenvalues --   -0.24225  -0.17819
 Alpha virt. eigenvalues --   -0.10796  -0.06709  -0.06326  -0.04432  -0.00465
 Alpha virt. eigenvalues --    0.06732   0.07547   0.09105   0.10803   0.11378
 Alpha virt. eigenvalues --    0.12260   0.13061   0.13495   0.14866   0.15427

 Mulliken charges:
               1
     1  O   -0.323764
     2  C    0.416715
     3  C   -0.354117
     4  C    0.274963
     5  C   -0.188479
     6  N   -0.200386
     7  C    0.292896
     8  C   -0.221186
     9  C   -0.078961
    10  C   -0.122431
    11  C   -0.091502
    12  C   -0.146682
    13  C   -0.023209
    14  C    0.305458
    15  N   -0.359489
    16  C    0.307020
    17  C   -0.367187
    18  H    0.132771
    19  H    0.129558
    20  H    0.098986
    21  H    0.099123
    22  H    0.096019
    23  H    0.097979
    24  H    0.102678
    25  H    0.123229
 Sum of Mulliken charges =  -0.00000

 Dipole moment (field-independent basis, Debye):
    X=              4.3426    Y=             -0.6118    Z=              1.5692  Tot=              4.6578
 Quadrupole moment (field-independent basis, Debye-Ang):
   XX=           -112.0828   YY=            -86.0144   ZZ=            -97.5158
   XY=              1.3625   XZ=              1.6740   YZ=             -0.1734

  Exact polarizability: 415.327  -7.641 145.387   2.167  -0.277  75.366
 Approx polarizability: 808.144 -28.417 258.512   0.734  -2.710 138.354

                      1                      2                      3
                      A                      A                      A
 Frequencies --     50.7059                63.6801               110.4657
 Red. masses --      8.1341                 4.0436                 5.0929
 Frc consts  --      0.0123                 0.0097                 0.0366
 IR Inten    --      0.7395                 1.9298                 5.4653

                      4                      5                      6
                      A                      A                      A
 Frequencies --    152.9151               169.4281               197.5178
 Red. masses --      4.4323                 3.9034                 4.3540
 Frc consts  --      0.0611                 0.0660                 0.1001
 IR Inten    --      3.7253                 8.1509                 0.5655

                      7                      8                      9
                      A                      A                      A
 Frequencies --    223.0016               255.0918               283.7493
 Red. masses --      5.6432                 7.1629                 5.8186
 Frc consts  --      0.1653                 0.2746                 0.2760
 IR Inten    --      0.8879                14.3243                 0.3272

                     10                     11                     12
                      A                      A                      A
 Frequencies --    290.2148               374.7249               400.4211
 Red. masses --      6.3630                 4.3057                 8.1716
 Frc consts  --      0.3158                 0.3562                 0.7720
 IR Inten    --      7.5516                 8.4658                25.1159

                     13                     14                     15
                      A                      A                      A
 Frequencies --    407.6533               427.1916               455.3006
 Red. masses --      5.2754                 6.4872                 6.5556
 Frc consts  --      0.5165                 0.6975                 0.8007
 IR Inten    --     13.5111                 5.3209                19.7781

                     16                     17                     18
                      A                      A                      A
 Frequencies --    490.5455               512.1686               577.6252
 Red. masses --      5.9926                 6.5627                 5.6410
 Frc consts  --      0.8496                 1.0143                 1.1089
 IR Inten    --     14.0676                37.7138                 2.5309

                     19                     20                     21
                      A                      A                      A
 Frequencies --    587.6793               599.5123               615.3365
 Red. masses --      5.1430                 3.8160                 4.4975
 Frc consts  --      1.0465                 0.8081                 1.0033
 IR Inten    --      3.0345                 1.1613                12.3749

                     22                     23                     24
                      A                      A                      A
 Frequencies --    654.3456               680.3751               695.1471
 Red. masses --      5.9549                 4.8648                 3.9795
 Frc consts  --      1.5022                 1.3268                 1.1330
 IR Inten    --      9.5053                12.9575                 2.3922

                     25                     26                     27
                      A                      A                      A
 Frequencies --    723.3724               739.2701               749.2648
 Red. masses --      3.2451                 2.3901                 1.5677
 Frc consts  --      1.0005                 0.7696                 0.5185
 IR Inten    --      1.8785                15.0677                39.1014

                     28                     29                     30
                      A                      A                      A
 Frequencies --    765.4293               796.1904               829.6227
 Red. masses --      2.6295                 2.4774                 1.5155
 Frc consts  --      0.9077                 0.9253                 0.6145
 IR Inten    --      2.0981                29.0033                 5.7522

                     31                     32                     33
                      A                      A                      A
 Frequencies --    874.6783               884.6520               887.6601
 Red. masses --      3.5397                 2.1031                 1.9069
 Frc consts  --      1.5956                 0.9697                 0.8853
 IR Inten    --     90.6606                 5.1562                41.0092

                     34                     35                     36
                      A                      A                      A
 Frequencies --    896.4615               927.3278               967.5260
 Red. masses --      2.2905                 3.3056                 1.9751
 Frc consts  --      1.0845                 1.6748                 1.0893
 IR Inten    --      5.5706                38.9278                14.5882

                     37                     38                     39
                      A                      A                      A
 Frequencies --    989.9551               997.7359              1028.4451
 Red. masses --      1.2652                 1.2606                 2.7973
 Frc consts  --      0.7305                 0.7394                 1.7432
 IR Inten    --      0.1120                 0.0948                 2.4575

                     40                     41                     42
                      A                      A                      A
 Frequencies --   1071.0774              1116.7613              1126.8209
 Red. masses --      4.8156                 6.0868                 2.9363
 Frc consts  --      3.2549                 4.4726                 2.1966
 IR Inten    --     14.8133                11.0442                63.6712

                     43                     44                     45
                      A                      A                      A
 Frequencies --   1159.1641              1206.5714              1228.1730
 Red. masses --      1.8881                 2.4200                 2.8232
 Frc consts  --      1.4947                 2.0757                 2.5091
 IR Inten    --      3.1665                11.4532                52.0672

                     46                     47                     48
                      A                      A                      A
 Frequencies --   1241.9882              1276.5784              1295.1827
 Red. masses --      2.0129                 1.2166                 1.2196
 Frc consts  --      1.8294                 1.1681                 1.2054
 IR Inten    --     68.7839                17.6592                 3.3141

                     49                     50                     51
                      A                      A                      A
 Frequencies --   1348.4579              1361.5251              1366.1545
 Red. masses --      2.8962                 1.5351                 1.5065
 Frc consts  --      3.1028                 1.6767                 1.6566
 IR Inten    --     13.3463                10.9145                 8.3230

                     52                     53                     54
                      A                      A                      A
 Frequencies --   1443.3440              1483.4139              1602.5775
 Red. masses --      1.5635                 1.8275                 8.7750
 Frc consts  --      1.9191                 2.3694                13.2780
 IR Inten    --      0.0108                 1.0585               381.3030

                     55                     56                     57
                      A                      A                      A
 Frequencies --   1632.5704              1636.4592              1672.4672
 Red. masses --      8.9834                 7.0582                 8.9334
 Frc consts  --     14.1070                11.1367                14.7225
 IR Inten    --    214.0193                 2.8987                81.5802

                     58                     59                     60
                      A                      A                      A
 Frequencies --   1693.4938              1701.6158              1781.1482
 Red. masses --      5.5644                 8.8950                12.1453
 Frc consts  --      9.4024                15.1747                22.7017
 IR Inten    --     65.8585               116.2681               603.5923

                     61                     62                     63
                      A                      A                      A
 Frequencies --   2041.2907              3001.9453              3146.4369
 Red. masses --     12.4440                 1.0854                 1.0816
 Frc consts  --     30.5506                 5.7632                 6.3092
 IR Inten    --    514.0980                26.7667                 0.5639

                     64                     65                     66
                      A                      A                      A
 Frequencies --   3153.2633              3165.1578              3172.2833
 Red. masses --      1.0842                 1.0893                 1.0907
 Frc consts  --      6.3518                 6.4299                 6.4669
 IR Inten    --      3.7555                14.5594                27.1851

                     67                     68                     69
                      A                      A                      A
 Frequencies --   3180.0209              3236.2689              3262.0757
 Red. masses --      1.0935                 1.0976                 1.0971
 Frc consts  --      6.5154                 6.7729                 6.8784
 IR Inten    --     27.5089                 2.3581                 0.7409

 - Thermochemistry -
 -------------------
 Temperature   298.150 Kelvin.  Pressure   1.00000 Atm.
 Atom     1 has atomic number  8 and mass  15.99491

 Molecular mass:   220.06366 amu.
 Principal axes and moments of inertia in atomic units:
                           1         2         3
     Eigenvalues --  1060.055397286.967298133.30144
           X            1.00000  -0.00007   0.00193
           Y            0.00007   1.00000   0.00308
           Z           -0.00194  -0.00308   0.99999
 This molecule is an asymmetric top.
 Rotational symmetry number  1.
 Warning -- assumption of classical behavior for rotation
           may cause significant error
 Rotational temperatures (Kelvin)      0.08171     0.01189     0.01065
 Rotational constants (GHZ):           1.70250     0.24767     0.22190
 Zero-point vibrational energy     473342.4 (Joules/Mol)
                                  113.13156 (Kcal/Mol)
 Warning -- explicit consideration of  21 degrees of freedom as
           vibrations may cause significant error
 Vibrational temperatures:     72.95    91.62   158.94   220.01   243.77
          (Kelvin)            284.18   320.85   367.02   408.25   417.55
                              539.15   576.12   586.52   614.63   655.08
                              705.79   736.90   831.07   845.54   862.56
                              885.33   941.46   978.91  1000.16  1040.77
                             1063.64  1078.02  1101.28  1145.54  1193.64
                             1258.47  1272.82  1277.14  1289.81  1334.22
                             1392.05  1424.32  1435.52  1479.70  1541.04
                             1606.77  1621.24  1667.78  1735.99  1767.07
                             1786.94  1836.71  1863.48  1940.13  1958.93
                             1965.59  2076.65  2134.30  2305.75  2348.90
                             2354.50  2406.31  2436.56  2448.25  2562.68
                             2936.96  4319.13  4527.02  4536.84  4553.96
                             4564.21  4575.34  4656.27  4693.40

 Zero-point correction=                           0.180287 (Hartree/Particle)
 Thermal correction to Energy=                    0.193299
 Thermal correction to Enthalpy=                  0.194244
 Thermal correction to Gibbs Free Energy=         0.140728
 Sum of electronic and zero-point Energies=           -722.699894
 Sum of electronic and thermal Energies=              -722.686882
 Sum of electronic and thermal Enthalpies=            -722.685937
 Sum of electronic and thermal Free Energies=         -722.739453

                     E (Thermal)             CV                S
                      KCal/Mol        Cal/Mol-Kelvin    Cal/Mol-Kelvin
 Total                  121.297             52.020            112.633
 Electronic               0.000              0.000              0.000
 Translational            0.889              2.981             42.069
 Rotational               0.889              2.981             32.507
 Vibrational            119.520             46.058             38.056
 Vibration     1          0.595              1.977              4.790
 Vibration     2          0.597              1.972              4.340
 Vibration     3          0.606              1.941              3.261
 Vibration     4          0.619              1.899              2.636
 Vibration     5          0.625              1.880              2.442
 Vibration     6          0.637              1.843              2.156
 Vibration     7          0.649              1.806              1.935
 Vibration     8          0.665              1.754              1.695
 Vibration     9          0.682              1.704              1.511
 Vibration    10          0.686              1.692              1.473
 Vibration    11          0.746              1.524              1.060
 Vibration    12          0.766              1.469              0.961
 Vibration    13          0.772              1.454              0.935
 Vibration    14          0.789              1.411              0.868
 Vibration    15          0.814              1.349              0.780
 Vibration    16          0.846              1.271              0.682
 Vibration    17          0.867              1.223              0.628
 Vibration    18          0.934              1.080              0.490
 Vibration    19          0.945              1.058              0.471
 Vibration    20          0.958              1.033              0.450
 Vibration    21          0.975              0.999              0.424

 Optimization completed.
    -- Stationary point found.
 Normal termination of Gaussian 16 at Wed May 17 10:46:48 2023.
