 Gaussian 16, Revision A.03,
 Gaussian 16:  ES64L-G16RevA.03 25-Dec-2016

 -----------------------------
 # opt freq b3lyp/6-31g(2df,p)
 -----------------------------

 -------------------
 Title Card Required
 -------------------
 Symbolic Z-matrix:
 Charge =  0 Multiplicity = 1

 SCF Done:  E(RB3LYP) =  -588.526097948     A.U. after   32 cycles
 SCF Done:  E(RB3LYP) =  -588.966943790     A.U. after   26 cycles
 SCF Done:  E(RB3LYP) =  -589.387798762     A.U. after   23 cycles
 SCF Done:  E(RB3LYP) =  -589.602744288     A.U. after   26 cycles
 SCF Done:  E(RB3LYP) =  -589.622819437     A.U. after   21 cycles
 SCF Done:  E(RB3LYP) =  -589.753007566     A.U. after   24 cycles
 SCF Done:  E(RB3LYP) =  -589.779272794     A.U. after   17 cycles
 SCF Done:  E(RB3LYP) =  -589.837446158     A.U. after   18 cycles
 SCF Done:  E(RB3LYP) =  -589.903493327     A.U. after   16 cycles
 SCF Done:  E(RB3LYP) =  -589.884131185     A.U. after   17 cycles
 SCF Done:  E(RB3LYP) =  -590.365172706     A.U. after   13 cycles
 SCF Done:  E(RB3LYP) =  -590.365273431     A.U. after   12 cycles
 SCF Done:  E(RB3LYP) =  -590.365310332     A.U. after   11 cycles
 SCF Done:  E(RB3LYP) =  -590.365321395     A.U. after   11 cycles
 SCF Done:  E(RB3LYP) =  -590.365328354     A.U. after   10 cycles
 SCF Done:  E(RB3LYP) =  -590.365333925     A.U. after    9 cycles
 SCF Done:  E(RB3LYP) =  -590.365336721     A.U. after    9 cycles
 SCF Done:  E(RB3LYP) =  -590.365338329     A.U. after    9 cycles
 SCF Done:  E(RB3LYP) =  -590.365339343     A.U. after    9 cycles
 Optimization completed.
    -- Stationary point found.
 Normal termination of Gaussian 16 at Thu May 18 02:07:46 2023.

 ----------------------------------------------------------------------
 #N Geom=AllCheck Guess=TCheck SCRF=Check GenChk RB3LYP/6-31G(2df,p) Fr
 eq
 ----------------------------------------------------------------------

 Structure from the checkpoint file:  "Odc1ccc2ncc1dCCqOrdCCd2.chk"
 -------------------
 Title Card Required
 -------------------
 Charge =  0 Multiplicity = 1

                         Standard orientation:
 ---------------------------------------------------------------------
 Center     Atomic      Atomic             Coordinates (Angstroms)
 Number     Number       Type             X           Y           Z
 ---------------------------------------------------------------------
      1          8           0       -2.383767    1.788919    0.032000
      2          6           0       -1.113050    1.331129    0.019693
      3          6           0       -0.063128    2.294169    0.033671
      4          6           0        1.250364    1.897415   -0.010270
      5          6           0        1.619360    0.518453   -0.073835
      6          7           0        2.954393    0.170026   -0.153148
      7          6           0        3.321882   -0.965921    0.292920
      8          6           0        0.627328   -1.864434   -0.342249
      9          6           0       -0.661782   -2.330711    0.033325
     10          6           0       -1.518845   -1.234525    0.068117
     11          8           0       -2.862752   -1.186162    0.034898
     12          6           0       -0.758204   -0.000216   -0.019473
     13          6           0        0.595431   -0.421370   -0.121367
     14          1           0       -0.332585    3.343374    0.068162
     15          1           0        2.046739    2.633344   -0.001010
     16          1           0        4.327421   -1.325093    0.078459
     17          1           0       -0.994541   -3.362610    0.020936
     18          1           0       -3.231822   -2.069489    0.160130
     19          1           0       -2.988071    1.034451    0.032946
     20          1           0        2.668129   -1.610153    0.894041
 ---------------------------------------------------------------------

 SCF Done:  E(RB3LYP) =  -590.365339343     A.U. after    1 cycles

 The electronic state is 1-A.
 Alpha  occ. eigenvalues --  -19.22277 -19.18748 -14.33290 -10.27988 -10.26616
 Alpha  occ. eigenvalues --  -10.22612 -10.22158 -10.20057 -10.19756 -10.19111
 Alpha  occ. eigenvalues --  -10.18185 -10.17847 -10.17712  -1.10890  -1.07768
 Alpha  occ. eigenvalues --   -0.93773  -0.87628  -0.82204  -0.74902  -0.72428
 Alpha  occ. eigenvalues --   -0.69241  -0.64985  -0.61195  -0.59061  -0.56789
 Alpha  occ. eigenvalues --   -0.56151  -0.50745  -0.49295  -0.47505  -0.45719
 Alpha  occ. eigenvalues --   -0.44975  -0.44531  -0.41827  -0.41248  -0.40832
 Alpha  occ. eigenvalues --   -0.39378  -0.37689  -0.36593  -0.34840  -0.32732
 Alpha  occ. eigenvalues --   -0.30139  -0.26925  -0.22674  -0.21931  -0.18954
 Alpha virt. eigenvalues --   -0.09889  -0.03432   0.02470   0.03160   0.03620
 Alpha virt. eigenvalues --    0.08940   0.09694   0.12007   0.14373   0.14684
 Alpha virt. eigenvalues --    0.17029   0.18398   0.19293   0.21287   0.22412

 Mulliken charges:
               1
     1  O   -0.426609
     2  C    0.225360
     3  C   -0.182609
     4  C   -0.170074
     5  C    0.169123
     6  N   -0.202145
     7  C   -0.191672
     8  C   -0.273704
     9  C   -0.262516
    10  C    0.274242
    11  O   -0.425166
    12  C    0.089927
    13  C    0.169125
    14  H    0.117285
    15  H    0.117289
    16  H    0.127862
    17  H    0.086811
    18  H    0.319063
    19  H    0.314731
    20  H    0.123677
 Sum of Mulliken charges =  -0.00000

 Dipole moment (field-independent basis, Debye):
    X=             -3.4223    Y=             -0.7392    Z=              1.6342  Tot=              3.8639
 Quadrupole moment (field-independent basis, Debye-Ang):
   XX=            -62.5835   YY=            -69.0441   ZZ=            -75.6463
   XY=              8.4678   XZ=              2.4757   YZ=             -2.8990

  Exact polarizability: 179.341  -1.856 160.208  -0.855  -0.985  51.706
 Approx polarizability: 336.252 -13.325 336.602  -6.589   0.923  90.532

                      1                      2                      3
                      A                      A                      A
 Frequencies --    105.3332               123.5996               147.6946
 Red. masses --      5.3153                 5.7847                 4.4175
 Frc consts  --      0.0347                 0.0521                 0.0568
 IR Inten    --      3.2075                 1.7416                 2.2706

                      4                      5                      6
                      A                      A                      A
 Frequencies --    181.0036               218.4107               235.1344
 Red. masses --      4.4988                 4.3225                 4.4312
 Frc consts  --      0.0868                 0.1215                 0.1443
 IR Inten    --      2.2736                 6.6065                 2.0783

                      7                      8                      9
                      A                      A                      A
 Frequencies --    297.5558               378.8873               400.0609
 Red. masses --      6.0495                 5.2628                 5.6524
 Frc consts  --      0.3156                 0.4451                 0.5330
 IR Inten    --     17.2230                14.1108                13.3937

                     10                     11                     12
                      A                      A                      A
 Frequencies --    419.7668               478.0150               485.9400
 Red. masses --      4.6394                 1.3454                 4.0302
 Frc consts  --      0.4816                 0.1811                 0.5607
 IR Inten    --      3.9190               107.7592                12.0340

                     13                     14                     15
                      A                      A                      A
 Frequencies --    505.4345               531.7133               566.2754
 Red. masses --      2.2781                 1.2817                 2.9870
 Frc consts  --      0.3429                 0.2135                 0.5643
 IR Inten    --     53.4233                49.4772                 4.0761

                     16                     17                     18
                      A                      A                      A
 Frequencies --    604.7258               610.8574               653.8800
 Red. masses --      4.3787                 3.9809                 5.2573
 Frc consts  --      0.9434                 0.8752                 1.3244
 IR Inten    --     30.7536                13.0358                10.9663

                     19                     20                     21
                      A                      A                      A
 Frequencies --    665.0958               697.5985               715.1258
 Red. masses --      2.4650                 3.7244                 3.9477
 Frc consts  --      0.6425                 1.0679                 1.1895
 IR Inten    --      8.9612                12.8426                12.0624

                     22                     23                     24
                      A                      A                      A
 Frequencies --    771.1772               792.6496               822.7885
 Red. masses --      4.5714                 4.4937                 1.5687
 Frc consts  --      1.6018                 1.6635                 0.6257
 IR Inten    --      5.5114                 7.5443                42.1841

                     25                     26                     27
                      A                      A                      A
 Frequencies --    850.6228               912.1110               962.3978
 Red. masses --      1.7694                 5.4785                 1.2948
 Frc consts  --      0.7543                 2.6854                 0.7066
 IR Inten    --     29.6402                66.3309                 0.9096

                     28                     29                     30
                      A                      A                      A
 Frequencies --   1001.0402              1011.3538              1078.6768
 Red. masses --      1.3549                 4.1530                 2.6887
 Frc consts  --      0.8000                 2.5027                 1.8432
 IR Inten    --     17.8572                 0.3094                 1.6721

                     31                     32                     33
                      A                      A                      A
 Frequencies --   1153.4600              1165.7389              1180.0103
 Red. masses --      1.5111                 1.7304                 1.8080
 Frc consts  --      1.1846                 1.3855                 1.4833
 IR Inten    --     26.4416                51.8428               196.6987

                     34                     35                     36
                      A                      A                      A
 Frequencies --   1209.9233              1249.6630              1263.2238
 Red. masses --      2.1364                 2.2767                 2.2170
 Frc consts  --      1.8426                 2.0948                 2.0844
 IR Inten    --     29.9991               173.9079                 4.5149

                     37                     38                     39
                      A                      A                      A
 Frequencies --   1273.7180              1308.0081              1406.3635
 Red. masses --      2.8883                 2.5692                 2.4101
 Frc consts  --      2.7608                 2.5898                 2.8085
 IR Inten    --    162.4968                12.7097               105.4880

                     40                     41                     42
                      A                      A                      A
 Frequencies --   1419.8484              1464.0100              1490.1795
 Red. masses --      3.9033                 2.9828                 2.5074
 Frc consts  --      4.6362                 3.7667                 3.2806
 IR Inten    --     27.0666                17.7879               184.1911

                     43                     44                     45
                      A                      A                      A
 Frequencies --   1494.2259              1520.1892              1588.0153
 Red. masses --      2.4421                 2.8053                 6.5536
 Frc consts  --      3.2125                 3.8197                 9.7372
 IR Inten    --      5.9060               246.5148                15.1165

                     46                     47                     48
                      A                      A                      A
 Frequencies --   1652.5011              1682.4416              3020.5750
 Red. masses --      6.9289                 5.8913                 1.0621
 Frc consts  --     11.1480                 9.8252                 5.7096
 IR Inten    --    111.1232                50.2702                24.5862

                     49                     50                     51
                      A                      A                      A
 Frequencies --   3160.7618              3184.5517              3192.3204
 Red. masses --      1.1062                 1.0921                 1.0865
 Frc consts  --      6.5115                 6.5252                 6.5234
 IR Inten    --     41.5693                21.6967                 2.3702

                     52                     53                     54
                      A                      A                      A
 Frequencies --   3208.3440              3767.7746              3788.9729
 Red. masses --      1.0951                 1.0657                 1.0656
 Frc consts  --      6.6418                 8.9140                 9.0134
 IR Inten    --      5.8018                66.5699               133.2418

 - Thermochemistry -
 -------------------
 Temperature   298.150 Kelvin.  Pressure   1.00000 Atm.
 Atom     1 has atomic number  8 and mass  15.99491

 Molecular mass:   173.04768 amu.
 Principal axes and moments of inertia in atomic units:
                           1         2         3
     Eigenvalues --  1381.415222304.877133658.04105
           X            0.99998   0.00453   0.00322
           Y           -0.00452   0.99998  -0.00443
           Z           -0.00324   0.00442   0.99999
 This molecule is an asymmetric top.
 Rotational symmetry number  1.
 Warning -- assumption of classical behavior for rotation
           may cause significant error
 Rotational temperatures (Kelvin)      0.06270     0.03758     0.02368
 Rotational constants (GHZ):           1.30644     0.78301     0.49336
 Zero-point vibrational energy     383222.2 (Joules/Mol)
                                   91.59230 (Kcal/Mol)
 Warning -- explicit consideration of  17 degrees of freedom as
           vibrations may cause significant error
 Vibrational temperatures:    151.55   177.83   212.50   260.42   314.24
          (Kelvin)            338.31   428.12   545.13   575.60   603.95
                              687.76   699.16   727.21   765.02   814.74
                              870.07   878.89   940.79   956.92  1003.69
                             1028.91  1109.55  1140.45  1183.81  1223.86
                             1312.32  1384.68  1440.27  1455.11  1551.98
                             1659.57  1677.24  1697.77  1740.81  1797.99
                             1817.50  1832.60  1881.93  2023.44  2042.85
                             2106.38  2144.04  2149.86  2187.21  2284.80
                             2377.58  2420.66  4345.93  4547.63  4581.86
                             4593.04  4616.09  5420.99  5451.49

 Zero-point correction=                           0.145962 (Hartree/Particle)
 Thermal correction to Energy=                    0.156374
 Thermal correction to Enthalpy=                  0.157319
 Thermal correction to Gibbs Free Energy=         0.110384
 Sum of electronic and zero-point Energies=           -590.219378
 Sum of electronic and thermal Energies=              -590.208965
 Sum of electronic and thermal Enthalpies=            -590.208021
 Sum of electronic and thermal Free Energies=         -590.254956

                     E (Thermal)             CV                S
                      KCal/Mol        Cal/Mol-Kelvin    Cal/Mol-Kelvin
 Total                   98.126             41.552             98.783
 Electronic               0.000              0.000              0.000
 Translational            0.889              2.981             41.353
 Rotational               0.889              2.981             30.833
 Vibrational             96.349             35.590             26.597
 Vibration     1          0.605              1.945              3.353
 Vibration     2          0.610              1.929              3.043
 Vibration     3          0.617              1.905              2.702
 Vibration     4          0.630              1.866              2.318
 Vibration     5          0.646              1.813              1.972
 Vibration     6          0.655              1.787              1.839
 Vibration     7          0.691              1.678              1.431
 Vibration     8          0.749              1.515              1.044
 Vibration     9          0.766              1.470              0.962
 Vibration    10          0.782              1.427              0.893
 Vibration    11          0.835              1.299              0.715
 Vibration    12          0.842              1.281              0.694
 Vibration    13          0.861              1.238              0.645
 Vibration    14          0.887              1.180              0.583
 Vibration    15          0.922              1.104              0.511
 Vibration    16          0.963              1.022              0.442
 Vibration    17          0.970              1.009              0.431

                           ! Non-Optimized Parameters !
 Normal termination of Gaussian 16 at Thu May 18 03:06:27 2023.
