 Gaussian 16, Revision A.03,
 Gaussian 16:  ES64L-G16RevA.03 25-Dec-2016

 -----------------------------
 # opt freq b3lyp/6-31g(2df,p)
 -----------------------------

 -------------------
 Title Card Required
 -------------------
 Symbolic Z-matrix:
 Charge =  0 Multiplicity = 1

 SCF Done:  E(RB3LYP) =  -575.204686507     A.U. after   18 cycles
 SCF Done:  E(RB3LYP) =  -575.238958760     A.U. after   14 cycles
 SCF Done:  E(RB3LYP) =  -575.265986968     A.U. after   15 cycles
 SCF Done:  E(RB3LYP) =  -575.279092182     A.U. after   15 cycles
 SCF Done:  E(RB3LYP) =  -575.287012584     A.U. after   14 cycles
 SCF Done:  E(RB3LYP) =  -575.289984497     A.U. after   13 cycles
 SCF Done:  E(RB3LYP) =  -575.290615130     A.U. after   13 cycles
 SCF Done:  E(RB3LYP) =  -575.290793828     A.U. after   12 cycles
 SCF Done:  E(RB3LYP) =  -575.291073147     A.U. after   12 cycles
 SCF Done:  E(RB3LYP) =  -575.291134036     A.U. after   11 cycles
 SCF Done:  E(RB3LYP) =  -575.291146998     A.U. after   10 cycles
 SCF Done:  E(RB3LYP) =  -575.291148629     A.U. after    8 cycles
 Optimization completed.
    -- Stationary point found.
 Normal termination of Gaussian 16 at Fri May 19 04:38:40 2023.

 ----------------------------------------------------------------------
 #N Geom=AllCheck Guess=TCheck SCRF=Check GenChk RB3LYP/6-31G(2df,p) Fr
 eq
 ----------------------------------------------------------------------

 Structure from the checkpoint file:  "OdC1CdC2CdC3CdCCdC3CdCCdC12.chk"
 -------------------
 Title Card Required
 -------------------
 Charge =  0 Multiplicity = 1

                         Standard orientation:
 ---------------------------------------------------------------------
 Center     Atomic      Atomic             Coordinates (Angstroms)
 Number     Number       Type             X           Y           Z
 ---------------------------------------------------------------------
      1          8           0        4.267487   -0.204294    0.112676
      2          6           0        3.086229   -0.411982    0.071825
      3          6           0        2.189113   -1.607940    0.104823
      4          6           0        1.051666   -0.843624   -0.004883
      5          6           0       -0.314629   -1.333248   -0.106740
      6          6           0       -1.535984   -0.734343   -0.032557
      7          6           0       -2.822750   -1.420839   -0.213636
      8          6           0       -3.803855   -0.501309   -0.087941
      9          6           0       -3.207158    0.818471    0.215844
     10          6           0       -1.866216    0.692704    0.251313
     11          6           0       -0.680204    1.497302    0.536081
     12          6           0        0.113778    2.009017   -0.417486
     13          6           0        1.547411    1.738670   -0.292958
     14          6           0        1.836218    0.449277   -0.059912
     15          1           0        2.354997   -2.675625    0.170398
     16          1           0       -0.341743   -2.410838   -0.268418
     17          1           0       -2.928120   -2.473973   -0.433568
     18          1           0       -4.867336   -0.678045   -0.182185
     19          1           0       -3.772399    1.723626    0.392785
     20          1           0       -0.202028    1.262912    1.487302
     21          1           0       -0.284936    2.312374   -1.384218
     22          1           0        2.339959    2.460986   -0.466138
 ---------------------------------------------------------------------

 SCF Done:  E(RB3LYP) =  -575.291148629     A.U. after    1 cycles

 The electronic state is 1-A.
 Alpha  occ. eigenvalues --  -19.13496 -10.27402 -10.24142 -10.22683 -10.21981
 Alpha  occ. eigenvalues --  -10.21377 -10.21256 -10.20099 -10.19835 -10.19830
 Alpha  occ. eigenvalues --  -10.19575 -10.19510 -10.19232 -10.18829  -1.04355
 Alpha  occ. eigenvalues --   -0.89504  -0.87583  -0.81824  -0.78219  -0.74674
 Alpha  occ. eigenvalues --   -0.69480  -0.67907  -0.62435  -0.59206  -0.57516
 Alpha  occ. eigenvalues --   -0.55229  -0.52326  -0.50525  -0.49484  -0.47856
 Alpha  occ. eigenvalues --   -0.45737  -0.43135  -0.42903  -0.42424  -0.41862
 Alpha  occ. eigenvalues --   -0.39810  -0.39349  -0.38340  -0.37825  -0.36591
 Alpha  occ. eigenvalues --   -0.34258  -0.33640  -0.28296  -0.26357  -0.24621
 Alpha  occ. eigenvalues --   -0.23389  -0.22059
 Alpha virt. eigenvalues --   -0.10847  -0.04498  -0.01549   0.00823   0.06899
 Alpha virt. eigenvalues --    0.08630   0.09920   0.11735   0.12630   0.13137
 Alpha virt. eigenvalues --    0.14103   0.14439   0.15701   0.16183   0.16472

 Mulliken charges:
               1
     1  O   -0.311790
     2  C    0.388183
     3  C   -0.405267
     4  C    0.350566
     5  C   -0.275273
     6  C    0.258523
     7  C   -0.186864
     8  C   -0.101421
     9  C   -0.283829
    10  C    0.213351
    11  C   -0.239573
    12  C   -0.108799
    13  C   -0.272934
    14  C    0.066220
    15  H    0.136702
    16  H    0.109489
    17  H    0.104202
    18  H    0.109852
    19  H    0.112717
    20  H    0.107892
    21  H    0.108201
    22  H    0.119850
 Sum of Mulliken charges =  -0.00000

 Dipole moment (field-independent basis, Debye):
    X=             -3.4170    Y=             -1.1725    Z=             -0.4432  Tot=              3.6396
 Quadrupole moment (field-independent basis, Debye-Ang):
   XX=            -90.6620   YY=            -71.1696   ZZ=            -79.2956
   XY=             -0.6136   XZ=             -0.4312   YZ=             -0.6323

  Exact polarizability: 247.751 -13.508 138.485  -0.395  -2.231  65.310
 Approx polarizability: 467.162 -60.975 254.739  -5.277  -7.289 117.440

                      1                      2                      3
                      A                      A                      A
 Frequencies --     73.4137               122.3960               146.0962
 Red. masses --      6.3489                 4.2099                 5.0666
 Frc consts  --      0.0202                 0.0372                 0.0637
 IR Inten    --      0.6443                 1.0299                 2.5470

                      4                      5                      6
                      A                      A                      A
 Frequencies --    182.1935               219.4704               276.1305
 Red. masses --      2.9469                 6.4857                 3.3539
 Frc consts  --      0.0576                 0.1841                 0.1507
 IR Inten    --      1.5558                 2.4678                 1.5180

                      7                      8                      9
                      A                      A                      A
 Frequencies --    290.7605               318.9762               358.8415
 Red. masses --      5.0920                 5.9629                 2.8692
 Frc consts  --      0.2536                 0.3575                 0.2177
 IR Inten    --      2.8610                 0.7893                 2.3906

                     10                     11                     12
                      A                      A                      A
 Frequencies --    394.5986               417.6688               501.6169
 Red. masses --      4.1516                 5.5621                 3.6749
 Frc consts  --      0.3809                 0.5717                 0.5448
 IR Inten    --      1.5590                 0.4082                 4.0888

                     13                     14                     15
                      A                      A                      A
 Frequencies --    529.6827               611.5811               640.0423
 Red. masses --      2.9186                 4.6901                 4.2603
 Frc consts  --      0.4825                 1.0336                 1.0283
 IR Inten    --      1.0385                 2.9624                 2.8255

                     16                     17                     18
                      A                      A                      A
 Frequencies --    676.7330               708.7710               723.0713
 Red. masses --      2.5553                 5.6319                 3.1885
 Frc consts  --      0.6895                 1.6669                 0.9822
 IR Inten    --      9.7026                 2.3869                 4.7744

                     19                     20                     21
                      A                      A                      A
 Frequencies --    752.3712               773.0166               781.9534
 Red. masses --      2.5960                 2.5023                 2.3795
 Frc consts  --      0.8658                 0.8810                 0.8572
 IR Inten    --      3.2196                 0.5253                22.0973

                     22                     23                     24
                      A                      A                      A
 Frequencies --    811.6565               816.9641               840.8796
 Red. masses --      4.2257                 2.5249                 2.0421
 Frc consts  --      1.6402                 0.9929                 0.8507
 IR Inten    --      6.5993                 3.8704                29.3051

                     25                     26                     27
                      A                      A                      A
 Frequencies --    855.8751               876.3436               889.6332
 Red. masses --      1.9448                 1.5003                 2.3624
 Frc consts  --      0.8394                 0.6789                 1.1016
 IR Inten    --      8.6289                11.9877                 4.6164

                     28                     29                     30
                      A                      A                      A
 Frequencies --    926.5268               942.0897               950.5374
 Red. masses --      1.3602                 1.6813                 3.0385
 Frc consts  --      0.6880                 0.8792                 1.6175
 IR Inten    --      0.4047                28.8702                40.0318

                     31                     32                     33
                      A                      A                      A
 Frequencies --    982.8795               985.9431              1028.8209
 Red. masses --      1.9859                 1.2567                 4.2153
 Frc consts  --      1.1304                 0.7197                 2.6288
 IR Inten    --      3.1238                24.1598                29.9858

                     34                     35                     36
                      A                      A                      A
 Frequencies --   1067.2815              1090.9806              1118.2384
 Red. masses --      2.8765                 1.7417                 1.5090
 Frc consts  --      1.9305                 1.2214                 1.1118
 IR Inten    --     18.5197                12.4708                18.9261

                     37                     38                     39
                      A                      A                      A
 Frequencies --   1166.7804              1189.3582              1247.9078
 Red. masses --      2.0505                 2.8469                 1.9829
 Frc consts  --      1.6447                 2.3727                 1.8194
 IR Inten    --      5.0816                 3.6214                32.5348

                     40                     41                     42
                      A                      A                      A
 Frequencies --   1264.5240              1281.7330              1315.6567
 Red. masses --      1.5352                 1.9143                 2.1606
 Frc consts  --      1.4464                 1.8529                 2.2035
 IR Inten    --      0.5926                22.1634                 1.5132

                     43                     44                     45
                      A                      A                      A
 Frequencies --   1346.0716              1356.6286              1387.6269
 Red. masses --      1.3668                 1.7345                 1.4446
 Frc consts  --      1.4592                 1.8809                 1.6388
 IR Inten    --      7.4729                10.0904                 7.1886

                     46                     47                     48
                      A                      A                      A
 Frequencies --   1529.8875              1570.6173              1630.4124
 Red. masses --      7.3114                 6.1825                 7.0328
 Frc consts  --     10.0825                 8.9858                11.0147
 IR Inten    --     33.3536                84.7991                10.0941

                     49                     50                     51
                      A                      A                      A
 Frequencies --   1638.4313              1688.3020              1705.0880
 Red. masses --      6.2313                 9.0073                 8.3649
 Frc consts  --      9.8556                15.1268                14.3286
 IR Inten    --      5.5637                15.2456                 9.4006

                     52                     53                     54
                      A                      A                      A
 Frequencies --   1868.4903              3112.1275              3126.7241
 Red. masses --     12.6200                 1.0854                 1.0858
 Frc consts  --     25.9592                 6.1936                 6.2543
 IR Inten    --    530.9616                10.1750                 7.6995

                     55                     56                     57
                      A                      A                      A
 Frequencies --   3135.5585              3170.1290              3213.2293
 Red. masses --      1.0875                 1.0905                 1.0872
 Frc consts  --      6.2998                 6.4571                 6.6139
 IR Inten    --     11.6731                 9.2881                 3.0285

                     58                     59                     60
                      A                      A                      A
 Frequencies --   3219.5653              3226.7856              3240.1676
 Red. masses --      1.0995                 1.0942                 1.1050
 Frc consts  --      6.7149                 6.7124                 6.8350
 IR Inten    --      0.4963                 7.4274                12.6735

 - Thermochemistry -
 -------------------
 Temperature   298.150 Kelvin.  Pressure   1.00000 Atm.
 Atom     1 has atomic number  8 and mass  15.99491

 Molecular mass:   180.05751 amu.
 Principal axes and moments of inertia in atomic units:
                           1         2         3
     Eigenvalues --   981.693313882.143414764.03583
           X            0.99999   0.00418   0.00018
           Y           -0.00418   0.99999  -0.00162
           Z           -0.00019   0.00162   1.00000
 This molecule is an asymmetric top.
 Rotational symmetry number  1.
 Warning -- assumption of classical behavior for rotation
           may cause significant error
 Rotational temperatures (Kelvin)      0.08823     0.02231     0.01818
 Rotational constants (GHZ):           1.83840     0.46488     0.37883
 Zero-point vibrational energy     432544.8 (Joules/Mol)
                                  103.38068 (Kcal/Mol)
 Warning -- explicit consideration of  14 degrees of freedom as
           vibrations may cause significant error
 Vibrational temperatures:    105.63   176.10   210.20   262.14   315.77
          (Kelvin)            397.29   418.34   458.94   516.29   567.74
                              600.93   721.71   762.10   879.93   920.88
                              973.67  1019.76  1040.34  1082.49  1112.20
                             1125.06  1167.79  1175.43  1209.84  1231.41
                             1260.86  1279.98  1333.07  1355.46  1367.61
                             1414.14  1418.55  1480.24  1535.58  1569.68
                             1608.90  1678.74  1711.22  1795.46  1819.37
                             1844.13  1892.94  1936.70  1951.89  1996.49
                             2201.17  2259.77  2345.80  2357.34  2429.09
                             2453.24  2688.34  4477.66  4498.66  4511.37
                             4561.11  4623.12  4632.24  4642.62  4661.88

 Zero-point correction=                           0.164748 (Hartree/Particle)
 Thermal correction to Energy=                    0.175240
 Thermal correction to Enthalpy=                  0.176184
 Thermal correction to Gibbs Free Energy=         0.128638
 Sum of electronic and zero-point Energies=           -575.126401
 Sum of electronic and thermal Energies=              -575.115909
 Sum of electronic and thermal Enthalpies=            -575.114965
 Sum of electronic and thermal Free Energies=         -575.162511

                     E (Thermal)             CV                S
                      KCal/Mol        Cal/Mol-Kelvin    Cal/Mol-Kelvin
 Total                  109.965             42.472            100.069
 Electronic               0.000              0.000              0.000
 Translational            0.889              2.981             41.471
 Rotational               0.889              2.981             31.274
 Vibrational            108.187             36.510             27.324
 Vibration     1          0.599              1.967              4.060
 Vibration     2          0.610              1.930              3.062
 Vibration     3          0.617              1.907              2.722
 Vibration     4          0.630              1.864              2.306
 Vibration     5          0.647              1.811              1.963
 Vibration     6          0.678              1.718              1.558
 Vibration     7          0.687              1.691              1.470
 Vibration     8          0.705              1.637              1.315
 Vibration     9          0.734              1.557              1.127
 Vibration    10          0.762              1.482              0.983
 Vibration    11          0.781              1.432              0.900
 Vibration    12          0.857              1.246              0.654
 Vibration    13          0.885              1.184              0.588
 Vibration    14          0.971              1.007              0.430

 Optimization completed.
    -- Stationary point found.
 Normal termination of Gaussian 16 at Fri May 19 05:50:17 2023.
