 Gaussian 16, Revision A.03,
 Gaussian 16:  ES64L-G16RevA.03 25-Dec-2016

 -----------------------------
 # opt freq b3lyp/6-31g(2df,p)
 -----------------------------

 -------------------
 Title Card Required
 -------------------
 Symbolic Z-matrix:
 Charge =  0 Multiplicity = 1

 SCF Done:  E(RB3LYP) =  -1195.78522961     A.U. after   21 cycles
 SCF Done:  E(RB3LYP) =  -1195.83129928     A.U. after   16 cycles
 SCF Done:  E(RB3LYP) =  -1195.87367430     A.U. after   15 cycles
 SCF Done:  E(RB3LYP) =  -1195.88392814     A.U. after   15 cycles
 SCF Done:  E(RB3LYP) =  -1195.88604874     A.U. after   15 cycles
 SCF Done:  E(RB3LYP) =  -1195.88918122     A.U. after   14 cycles
 SCF Done:  E(RB3LYP) =  -1195.89007676     A.U. after   13 cycles
 SCF Done:  E(RB3LYP) =  -1195.89088883     A.U. after   14 cycles
 SCF Done:  E(RB3LYP) =  -1195.89105353     A.U. after   13 cycles
 SCF Done:  E(RB3LYP) =  -1195.89112803     A.U. after   12 cycles
 SCF Done:  E(RB3LYP) =  -1195.89116526     A.U. after   12 cycles
 SCF Done:  E(RB3LYP) =  -1195.89116975     A.U. after   10 cycles
 SCF Done:  E(RB3LYP) =  -1195.89117138     A.U. after    9 cycles
 SCF Done:  E(RB3LYP) =  -1195.89117190     A.U. after    8 cycles
 SCF Done:  E(RB3LYP) =  -1195.89117210     A.U. after    8 cycles
 SCF Done:  E(RB3LYP) =  -1195.89117223     A.U. after    8 cycles
 Optimization completed.
    -- Stationary point found.
 Normal termination of Gaussian 16 at Wed May 17 08:55:50 2023.

 ----------------------------------------------------------------------
 #N Geom=AllCheck Guess=TCheck SCRF=Check GenChk RB3LYP/6-31G(2df,p) Fr
 eq
 ----------------------------------------------------------------------

 Structure from the checkpoint file:  "OdC1CdCd[SH]C2dCCdCS2dN1.chk"
 -------------------
 Title Card Required
 -------------------
 Charge =  0 Multiplicity = 1

                         Standard orientation:
 ---------------------------------------------------------------------
 Center     Atomic      Atomic             Coordinates (Angstroms)
 Number     Number       Type             X           Y           Z
 ---------------------------------------------------------------------
      1          8           0       -2.865895   -1.697957   -0.515145
      2          6           0       -1.962338   -0.958055   -0.168405
      3          6           0       -2.343597    0.430956    0.295773
      4          6           0       -1.735643    1.622836    0.328095
      5         16           0       -0.155811    2.034896   -0.196201
      6          6           0        1.195653    0.794665   -0.074664
      7          6           0        2.490101    0.647461   -0.410754
      8          6           0        2.960247   -0.723981   -0.215606
      9          6           0        2.009976   -1.582024    0.201221
     10         16           0        0.514194   -0.729395    0.573599
     11          7           0       -0.647707   -1.380824   -0.331873
     12          1           0       -3.402807    0.442304    0.556129
     13          1           0        0.239107    2.742889    0.882920
     14          1           0        3.135485    1.437415   -0.778549
     15          1           0        3.989286   -1.013434   -0.396258
     16          1           0        2.079513   -2.638920    0.407696
 ---------------------------------------------------------------------

 SCF Done:  E(RB3LYP) =  -1195.89117223     A.U. after    1 cycles

 The electronic state is 1-A.
 Alpha  occ. eigenvalues --  -89.00469 -88.98787 -19.08706 -14.31851 -10.26552
 Alpha  occ. eigenvalues --  -10.25665 -10.25068 -10.24999 -10.24751 -10.19321
 Alpha  occ. eigenvalues --  -10.18922  -8.05426  -8.04255  -6.01810  -6.01697
 Alpha  occ. eigenvalues --   -6.01288  -6.00696  -6.00431  -6.00014  -1.01233
 Alpha  occ. eigenvalues --   -0.95268  -0.87630  -0.85843  -0.76694  -0.75877
 Alpha  occ. eigenvalues --   -0.72263  -0.62310  -0.59998  -0.57388  -0.55274
 Alpha  occ. eigenvalues --   -0.52162  -0.49275  -0.47461  -0.45366  -0.44183
 Alpha  occ. eigenvalues --   -0.42513  -0.41238  -0.39787  -0.38322  -0.37480
 Alpha  occ. eigenvalues --   -0.34146  -0.29314  -0.26793  -0.25861  -0.24691
 Alpha  occ. eigenvalues --   -0.23113  -0.20766
 Alpha virt. eigenvalues --   -0.09924  -0.03251  -0.02755  -0.00023   0.02036
 Alpha virt. eigenvalues --    0.02629   0.04012   0.06767   0.07589   0.10386
 Alpha virt. eigenvalues --    0.11734   0.13653   0.15259   0.17207   0.19146

 Mulliken charges:
               1
     1  O   -0.338115
     2  C    0.332971
     3  C   -0.153676
     4  C   -0.216835
     5  S    0.047244
     6  C    0.058523
     7  C   -0.205675
     8  C   -0.065093
     9  C   -0.152202
    10  S    0.260197
    11  N   -0.333383
    12  H    0.128522
    13  H    0.191594
    14  H    0.140709
    15  H    0.140228
    16  H    0.164992
 Sum of Mulliken charges =  -0.00000

 Dipole moment (field-independent basis, Debye):
    X=              8.3477    Y=              2.7549    Z=              1.5435  Tot=              8.9250
 Quadrupole moment (field-independent basis, Debye-Ang):
   XX=            -76.5455   YY=            -76.3248   ZZ=            -77.0794
   XY=             -5.4948   XZ=             -3.5428   YZ=             -3.3362

  Exact polarizability: 179.963   5.434 123.843  -8.210   0.677  63.314
 Approx polarizability: 344.012  39.675 236.049 -18.103   3.870 119.822

                      1                      2                      3
                      A                      A                      A
 Frequencies --     73.1418                82.3932               169.4746
 Red. masses --      7.0551                 5.6250                 7.3893
 Frc consts  --      0.0222                 0.0225                 0.1250
 IR Inten    --      0.4280                 0.8129                 3.9303

                      4                      5                      6
                      A                      A                      A
 Frequencies --    185.2281               239.2199               241.5707
 Red. masses --      9.1907                 7.0670                 4.6041
 Frc consts  --      0.1858                 0.2383                 0.1583
 IR Inten    --      3.8989                16.6331                 5.4742

                      7                      8                      9
                      A                      A                      A
 Frequencies --    305.1086               352.9319               378.3882
 Red. masses --      7.7017                 6.3874                 8.7745
 Frc consts  --      0.4224                 0.4688                 0.7402
 IR Inten    --     10.8960                11.9221                29.3356

                     10                     11                     12
                      A                      A                      A
 Frequencies --    428.3342               470.7784               516.2491
 Red. masses --      7.6667                 8.5638                 3.2229
 Frc consts  --      0.8288                 1.1183                 0.5061
 IR Inten    --      2.0222                 4.1570                 2.2748

                     13                     14                     15
                      A                      A                      A
 Frequencies --    517.5221               598.0977               648.5005
 Red. masses --      5.4985                 9.4740                 6.0431
 Frc consts  --      0.8677                 1.9968                 1.4974
 IR Inten    --      9.2671                38.7729                 3.5532

                     16                     17                     18
                      A                      A                      A
 Frequencies --    684.6145               697.0173               717.7641
 Red. masses --      2.5232                 3.8797                 2.7566
 Frc consts  --      0.6968                 1.1106                 0.8367
 IR Inten    --      8.2019                10.5186                27.3900

                     19                     20                     21
                      A                      A                      A
 Frequencies --    747.6276               786.0306               819.6142
 Red. masses --      1.9715                 3.4550                 3.3799
 Frc consts  --      0.6493                 1.2577                 1.3377
 IR Inten    --     38.6770                22.1273                 8.1991

                     22                     23                     24
                      A                      A                      A
 Frequencies --    880.4982               904.6481               921.2457
 Red. masses --      1.4377                 3.3433                 5.5641
 Frc consts  --      0.6567                 1.6121                 2.7822
 IR Inten    --     17.7654                16.6747                44.5756

                     25                     26                     27
                      A                      A                      A
 Frequencies --    929.7901               952.3183              1013.9744
 Red. masses --      1.7436                 1.3920                 2.1511
 Frc consts  --      0.8881                 0.7438                 1.3031
 IR Inten    --      8.7181                 1.5135                 2.3571

                     28                     29                     30
                      A                      A                      A
 Frequencies --   1062.5717              1110.3756              1218.7953
 Red. masses --      1.1434                 1.0914                 3.0237
 Frc consts  --      0.7606                 0.7928                 2.6464
 IR Inten    --      3.3729                 1.0305               147.0216

                     31                     32                     33
                      A                      A                      A
 Frequencies --   1252.0529              1293.2721              1333.7530
 Red. masses --      1.3301                 1.5000                 1.7923
 Frc consts  --      1.2285                 1.4782                 1.8785
 IR Inten    --     40.7448                34.6182                30.8015

                     34                     35                     36
                      A                      A                      A
 Frequencies --   1510.9702              1614.6728              1632.8552
 Red. masses --      8.5936                 5.8083                 8.8392
 Frc consts  --     11.5594                 8.9221                13.8855
 IR Inten    --      2.0793                10.1809                 2.6141

                     37                     38                     39
                      A                      A                      A
 Frequencies --   1717.1594              2597.5258              3119.3605
 Red. masses --     12.2311                 1.0394                 1.0846
 Frc consts  --     21.2489                 4.1321                 6.2183
 IR Inten    --    364.2043                 6.2688                 9.7637

                     40                     41                     42
                      A                      A                      A
 Frequencies --   3192.0486              3204.8823              3267.5138
 Red. masses --      1.0903                 1.0938                 1.0989
 Frc consts  --      6.5452                 6.6196                 6.9128
 IR Inten    --      3.2103                 7.8721                 5.0986

 - Thermochemistry -
 -------------------
 Temperature   298.150 Kelvin.  Pressure   1.00000 Atm.
 Atom     1 has atomic number  8 and mass  15.99491

 Molecular mass:   182.98126 amu.
 Principal axes and moments of inertia in atomic units:
                           1         2         3
     Eigenvalues --  1282.408522168.698733270.11195
           X            0.99969  -0.02329  -0.00862
           Y            0.02331   0.99972   0.00292
           Z            0.00855  -0.00312   0.99996
 This molecule is an asymmetric top.
 Rotational symmetry number  1.
 Warning -- assumption of classical behavior for rotation
           may cause significant error
 Rotational temperatures (Kelvin)      0.06754     0.03994     0.02649
 Rotational constants (GHZ):           1.40731     0.83218     0.55189
 Zero-point vibrational energy     265510.5 (Joules/Mol)
                                   63.45854 (Kcal/Mol)
 Warning -- explicit consideration of  14 degrees of freedom as
           vibrations may cause significant error
 Vibrational temperatures:    105.23   118.55   243.84   266.50   344.18
          (Kelvin)            347.57   438.98   507.79   544.42   616.28
                              677.35   742.77   744.60   860.53   933.05
                              985.01  1002.85  1032.70  1075.67  1130.92
                             1179.24  1266.84  1301.59  1325.47  1337.76
                             1370.17  1458.88  1528.80  1597.58  1753.57
                             1801.42  1860.73  1918.97  2173.95  2323.15
                             2349.31  2470.61  3737.26  4488.06  4592.65
                             4611.11  4701.22

 Zero-point correction=                           0.101128 (Hartree/Particle)
 Thermal correction to Energy=                    0.111056
 Thermal correction to Enthalpy=                  0.112001
 Thermal correction to Gibbs Free Energy=         0.065351
 Sum of electronic and zero-point Energies=          -1195.790045
 Sum of electronic and thermal Energies=             -1195.780116
 Sum of electronic and thermal Enthalpies=           -1195.779172
 Sum of electronic and thermal Free Energies=        -1195.825822

                     E (Thermal)             CV                S
                      KCal/Mol        Cal/Mol-Kelvin    Cal/Mol-Kelvin
 Total                   69.689             37.762             98.183
 Electronic               0.000              0.000              0.000
 Translational            0.889              2.981             41.519
 Rotational               0.889              2.981             30.587
 Vibrational             67.911             31.800             26.077
 Vibration     1          0.599              1.967              4.067
 Vibration     2          0.600              1.961              3.833
 Vibration     3          0.625              1.880              2.441
 Vibration     4          0.631              1.860              2.275
 Vibration     5          0.657              1.780              1.809
 Vibration     6          0.658              1.777              1.791
 Vibration     7          0.696              1.664              1.389
 Vibration     8          0.729              1.569              1.153
 Vibration     9          0.749              1.516              1.046
 Vibration    10          0.790              1.409              0.864
 Vibration    11          0.828              1.315              0.735
 Vibration    12          0.871              1.214              0.619
 Vibration    13          0.873              1.211              0.616
 Vibration    14          0.956              1.036              0.453

 Optimization completed.
    -- Stationary point found.
 Normal termination of Gaussian 16 at Wed May 17 09:27:12 2023.
