 Gaussian 16, Revision A.03,
 Gaussian 16:  ES64L-G16RevA.03 25-Dec-2016

 -----------------------------
 # opt freq b3lyp/6-31g(2df,p)
 -----------------------------

 -------------------
 Title Card Required
 -------------------
 Symbolic Z-matrix:
 Charge =  0 Multiplicity = 1

 SCF Done:  E(RB3LYP) =  -1122.15478751     A.U. after   48 cycles
 SCF Done:  E(RB3LYP) =  -1124.25058062     A.U. after   32 cycles
 SCF Done:  E(RB3LYP) =  -1125.81202638     A.U. after   27 cycles
 SCF Done:  E(RB3LYP) =  -1126.71612947     A.U. after   27 cycles
 SCF Done:  E(RB3LYP) =  -1126.77241463     A.U. after   22 cycles
 SCF Done:  E(RB3LYP) =  -1126.88181677     A.U. after   21 cycles
 SCF Done:  E(RB3LYP) =  -1127.20666292     A.U. after   18 cycles
 SCF Done:  E(RB3LYP) =  -1127.37178237     A.U. after   20 cycles
 SCF Done:  E(RB3LYP) =  -1127.50485229     A.U. after   17 cycles
 SCF Done:  E(RB3LYP) =  -1127.58155993     A.U. after   17 cycles
 SCF Done:  E(RB3LYP) =  -1128.18273069     A.U. after   12 cycles
 SCF Done:  E(RB3LYP) =  -1128.18275360     A.U. after   12 cycles
 SCF Done:  E(RB3LYP) =  -1128.18276782     A.U. after   11 cycles
 SCF Done:  E(RB3LYP) =  -1128.18277775     A.U. after   10 cycles
 SCF Done:  E(RB3LYP) =  -1128.18278327     A.U. after    9 cycles
 SCF Done:  E(RB3LYP) =  -1128.18278670     A.U. after    9 cycles
 SCF Done:  E(RB3LYP) =  -1128.18278732     A.U. after    8 cycles
 SCF Done:  E(RB3LYP) =  -1128.18278773     A.U. after    8 cycles
 SCF Done:  E(RB3LYP) =  -1128.18278798     A.U. after    7 cycles
 Optimization completed.
    -- Stationary point found.
 Normal termination of Gaussian 16 at Fri May 19 14:28:44 2023.

 ----------------------------------------------------------------------
 #N Geom=AllCheck Guess=TCheck SCRF=Check GenChk RB3LYP/6-31G(2df,p) Fr
 eq
 ----------------------------------------------------------------------

 Structure from the checkpoint file:  "OdC1SCqOrNdCCdCCdCCdCCdC1F.chk"
 -------------------
 Title Card Required
 -------------------
 Charge =  0 Multiplicity = 1

                         Standard orientation:
 ---------------------------------------------------------------------
 Center     Atomic      Atomic             Coordinates (Angstroms)
 Number     Number       Type             X           Y           Z
 ---------------------------------------------------------------------
      1          8           0       -4.232719    0.850513    0.337778
      2          6           0       -1.808431    0.469303    0.090522
      3         16           0       -4.338391   -0.888364    0.065802
      4          6           0       -3.220711    0.374362   -0.496825
      5          8           0       -1.793118    0.345812    1.448282
      6          7           0       -0.966834   -0.525272   -0.507388
      7          6           0        0.261858   -0.303741   -0.624214
      8          6           0        1.871878   -1.800374    0.353093
      9          6           0        1.478167   -1.140321   -0.896115
     10          6           0        3.106262   -1.442733    0.753075
     11          6           0        3.697914   -0.403776   -0.163853
     12          6           0        5.543657    1.162826    0.515350
     13          6           0        4.262102    0.814217    0.529776
     14          6           0        2.523807   -0.069757   -1.088320
     15          6           0        1.285074    0.784037   -0.603022
     16          9           0       -1.397307    1.758186   -0.271645
     17          1           0       -3.296096    0.659602   -1.544844
     18          1           0       -2.630596    0.706714    1.777966
     19          1           0        0.993922    1.351062   -1.508180
     20          1           0        1.201528   -2.485552    0.858088
     21          1           0        2.813394    0.270441   -2.078526
     22          1           0        3.648412   -1.847285    1.600478
     23          1           0        4.513615   -0.865300   -0.741890
     24          1           0        5.894747    2.049695    1.031855
     25          1           0        6.293869    0.580008   -0.011572
     26          1           0        3.522283    1.412814    1.055016
 ---------------------------------------------------------------------

 SCF Done:  E(RB3LYP) =  -1128.18278798     A.U. after    1 cycles

 The electronic state is 1-A.
 Alpha  occ. eigenvalues --  -88.92795 -24.68358 -19.20869 -19.16692 -14.34045
 Alpha  occ. eigenvalues --  -10.35135 -10.29088 -10.26857 -10.22619 -10.22550
 Alpha  occ. eigenvalues --  -10.21685 -10.21544 -10.20462 -10.20290 -10.19803
 Alpha  occ. eigenvalues --  -10.18636  -7.98692  -5.95435  -5.94858  -5.93976
 Alpha  occ. eigenvalues --   -1.20656  -1.09926  -1.05774  -0.95054  -0.90225
 Alpha  occ. eigenvalues --   -0.81733  -0.77860  -0.74715  -0.71882  -0.70027
 Alpha  occ. eigenvalues --   -0.65014  -0.64170  -0.60852  -0.57594  -0.55687
 Alpha  occ. eigenvalues --   -0.55281  -0.54243  -0.53400  -0.51541  -0.48297
 Alpha  occ. eigenvalues --   -0.46794  -0.45431  -0.44924  -0.42679  -0.42024
 Alpha  occ. eigenvalues --   -0.41538  -0.40784  -0.39890  -0.38970  -0.38143
 Alpha  occ. eigenvalues --   -0.38051  -0.36836  -0.35578  -0.33963  -0.33152
 Alpha  occ. eigenvalues --   -0.32566  -0.30352  -0.29082  -0.27599  -0.26526
 Alpha  occ. eigenvalues --   -0.24071  -0.20650
 Alpha virt. eigenvalues --   -0.10774  -0.07311  -0.00361   0.01381   0.01931
 Alpha virt. eigenvalues --    0.03316   0.08845   0.10985   0.11451   0.11857
 Alpha virt. eigenvalues --    0.12460   0.12773   0.13901   0.15111   0.15793

 Mulliken charges:
               1
     1  O   -0.289069
     2  C    0.350550
     3  S    0.000027
     4  C    0.062226
     5  O   -0.393099
     6  N   -0.377073
     7  C    0.406073
     8  C   -0.072112
     9  C   -0.100478
    10  C   -0.062824
    11  C   -0.085519
    12  C   -0.334563
    13  C    0.031756
    14  C   -0.099256
    15  C   -0.301630
    16  F   -0.145295
    17  H    0.147688
    18  H    0.312170
    19  H    0.139178
    20  H    0.126436
    21  H    0.115087
    22  H    0.123298
    23  H    0.100221
    24  H    0.120733
    25  H    0.106446
    26  H    0.119028
 Sum of Mulliken charges =  -0.00000

 Dipole moment (field-independent basis, Debye):
    X=              2.6782    Y=             -0.8642    Z=             -0.5324  Tot=              2.8641
 Quadrupole moment (field-independent basis, Debye-Ang):
   XX=            -88.3998   YY=            -98.3828   ZZ=            -94.4650
   XY=             -1.3970   XZ=             -0.3173   YZ=             -2.8034

  Exact polarizability: 236.435   8.304 134.088   3.398  -5.148 104.855
 Approx polarizability: 323.817  -2.686 298.006   2.863  -0.845 179.547

                      1                      2                      3
                      A                      A                      A
 Frequencies --     17.0893                45.5726                58.4782
 Red. masses --      8.5648                 6.8193                 5.9113
 Frc consts  --      0.0015                 0.0083                 0.0119
 IR Inten    --      0.3958                 1.1561                 2.1552

                      4                      5                      6
                      A                      A                      A
 Frequencies --     77.5731                84.9411               116.8051
 Red. masses --      3.5390                 4.5105                 6.6455
 Frc consts  --      0.0125                 0.0192                 0.0534
 IR Inten    --      0.0718                 0.4809                 0.6414

                      7                      8                      9
                      A                      A                      A
 Frequencies --    156.5496               180.8417               225.7465
 Red. masses --      5.8162                 7.7933                 3.0197
 Frc consts  --      0.0840                 0.1502                 0.0907
 IR Inten    --      4.6420                 2.1154                 0.9543

                     10                     11                     12
                      A                      A                      A
 Frequencies --    254.5058               275.6016               302.2636
 Red. masses --      5.4111                 5.2457                 5.3597
 Frc consts  --      0.2065                 0.2348                 0.2885
 IR Inten    --     11.2625                10.9507                 5.2440

                     13                     14                     15
                      A                      A                      A
 Frequencies --    321.8746               360.4613               400.8237
 Red. masses --      4.5259                 3.5873                 6.7976
 Frc consts  --      0.2763                 0.2746                 0.6435
 IR Inten    --      1.7548                 2.2241                 3.7876

                     16                     17                     18
                      A                      A                      A
 Frequencies --    431.7115               452.7638               482.0483
 Red. masses --      3.3603                 1.3108                 5.2164
 Frc consts  --      0.3690                 0.1583                 0.7142
 IR Inten    --     11.4478                70.8540                38.8356

                     19                     20                     21
                      A                      A                      A
 Frequencies --    515.6466               529.8562               566.1809
 Red. masses --      3.6857                 2.5405                 7.4208
 Frc consts  --      0.5774                 0.4202                 1.4016
 IR Inten    --     20.4445                51.4241                18.6026

                     22                     23                     24
                      A                      A                      A
 Frequencies --    573.0291               627.2960               654.2295
 Red. masses --      6.0936                11.9153                 6.1630
 Frc consts  --      1.1789                 2.7625                 1.5542
 IR Inten    --     21.9851                 4.6321                46.8945

                     25                     26                     27
                      A                      A                      A
 Frequencies --    679.4738               723.6630               754.5856
 Red. masses --      1.7880                 4.4303                 5.1213
 Frc consts  --      0.4864                 1.3670                 1.7181
 IR Inten    --      4.4070                26.2182                18.8140

                     28                     29                     30
                      A                      A                      A
 Frequencies --    768.4421               773.9861               813.7776
 Red. masses --      1.9900                 4.5211                 3.6142
 Frc consts  --      0.6923                 1.5957                 1.4102
 IR Inten    --     18.4316                11.0373                64.6405

                     31                     32                     33
                      A                      A                      A
 Frequencies --    845.8686               859.5478               883.8005
 Red. masses --      2.4407                 6.8555                 4.3725
 Frc consts  --      1.0289                 2.9842                 2.0123
 IR Inten    --      7.9133                 7.9886                 5.3163

                     34                     35                     36
                      A                      A                      A
 Frequencies --    922.6998               949.1454               954.9342
 Red. masses --      2.8323                 2.3814                 1.3695
 Frc consts  --      1.4207                 1.2640                 0.7358
 IR Inten    --     24.0328                 8.7656                27.5629

                     37                     38                     39
                      A                      A                      A
 Frequencies --    965.8466               979.9008              1010.7084
 Red. masses --      1.9717                 1.6787                 4.1814
 Frc consts  --      1.0837                 0.9497                 2.5166
 IR Inten    --     23.7334                 7.5162               174.3104

                     40                     41                     42
                      A                      A                      A
 Frequencies --   1029.8688              1051.0277              1065.2970
 Red. masses --      1.7200                 1.2208                 1.6381
 Frc consts  --      1.0748                 0.7945                 1.0953
 IR Inten    --      8.8468                12.9167                 4.7179

                     43                     44                     45
                      A                      A                      A
 Frequencies --   1088.5877              1104.0779              1115.0527
 Red. masses --      1.8291                 1.7259                 1.6717
 Frc consts  --      1.2770                 1.2396                 1.2246
 IR Inten    --      2.9048                63.2276                50.1858

                     46                     47                     48
                      A                      A                      A
 Frequencies --   1138.4317              1149.2532              1159.9711
 Red. masses --      2.0059                 1.8374                 2.8124
 Frc consts  --      1.5317                 1.4299                 2.2295
 IR Inten    --     81.3573                 1.0158                28.7587

                     49                     50                     51
                      A                      A                      A
 Frequencies --   1164.4662              1220.8344              1260.3278
 Red. masses --      2.4293                 1.3520                 1.4897
 Frc consts  --      1.9408                 1.1872                 1.3942
 IR Inten    --     15.1389                 2.4900                18.6402

                     52                     53                     54
                      A                      A                      A
 Frequencies --   1263.1429              1290.9652              1304.9345
 Red. masses --      4.2433                 1.8070                 1.4247
 Frc consts  --      3.9890                 1.7744                 1.4294
 IR Inten    --     92.2726                 3.0744                 2.2367

                     55                     56                     57
                      A                      A                      A
 Frequencies --   1312.7955              1335.0053              1369.3010
 Red. masses --      1.2248                 1.4618                 1.7046
 Frc consts  --      1.2437                 1.5350                 1.8831
 IR Inten    --      3.9000                65.6849                 3.5616

                     58                     59                     60
                      A                      A                      A
 Frequencies --   1436.8790              1450.2664              1585.5388
 Red. masses --      1.8007                 1.1843                 6.1573
 Frc consts  --      2.1904                 1.4677                 9.1199
 IR Inten    --    237.6965                 0.7340                51.3131

                     61                     62                     63
                      A                      A                      A
 Frequencies --   1708.2042              1786.1194              2952.6352
 Red. masses --      4.8272                11.9488                 1.0806
 Frc consts  --      8.2990                22.4593                 5.5507
 IR Inten    --     18.7689               640.6970                 9.8673

                     64                     65                     66
                      A                      A                      A
 Frequencies --   2989.5539              3141.7991              3142.6183
 Red. masses --      1.0802                 1.0879                 1.0601
 Frc consts  --      5.6883                 6.3270                 6.1685
 IR Inten    --     13.1173                 4.5337                 7.2799

                     67                     68                     69
                      A                      A                      A
 Frequencies --   3154.1664              3169.7274              3194.2576
 Red. masses --      1.0880                 1.0922                 1.0859
 Frc consts  --      6.3774                 6.4655                 6.5280
 IR Inten    --      7.5557                 1.5214                 1.5171

                     70                     71                     72
                      A                      A                      A
 Frequencies --   3218.5098              3227.0973              3724.8737
 Red. masses --      1.1027                 1.1140                 1.0645
 Frc consts  --      6.7297                 6.8352                 8.7016
 IR Inten    --      7.1338                 9.9133                87.6209

 - Thermochemistry -
 -------------------
 Temperature   298.150 Kelvin.  Pressure   1.00000 Atm.
 Atom     1 has atomic number  8 and mass  15.99491

 Molecular mass:   239.04163 amu.
 Principal axes and moments of inertia in atomic units:
                           1         2         3
     Eigenvalues --  1248.309608723.813909187.30920
           X            0.99999   0.00371   0.00260
           Y           -0.00366   0.99978  -0.02070
           Z           -0.00267   0.02069   0.99978
 This molecule is an asymmetric top.
 Rotational symmetry number  1.
 Warning -- assumption of classical behavior for rotation
           may cause significant error
 Rotational temperatures (Kelvin)      0.06938     0.00993     0.00943
 Rotational constants (GHZ):           1.44575     0.20688     0.19644
 Zero-point vibrational energy     489893.9 (Joules/Mol)
                                  117.08744 (Kcal/Mol)
 Warning -- explicit consideration of  22 degrees of freedom as
           vibrations may cause significant error
 Vibrational temperatures:     24.59    65.57    84.14   111.61   122.21
          (Kelvin)            168.06   225.24   260.19   324.80   366.18
                              396.53   434.89   463.11   518.62   576.70
                              621.14   651.43   693.56   741.90   762.34
                              814.61   824.46   902.54   941.29   977.61
                             1041.19  1085.68  1105.62  1113.59  1170.84
                             1217.02  1236.70  1271.59  1327.56  1365.61
                             1373.94  1389.64  1409.86  1454.18  1481.75
                             1512.19  1532.72  1566.23  1588.52  1604.31
                             1637.95  1653.52  1668.94  1675.41  1756.51
                             1813.33  1817.38  1857.41  1877.51  1888.82
                             1920.77  1970.12  2067.35  2086.61  2281.24
                             2457.72  2569.83  4248.18  4301.30  4520.35
                             4521.53  4538.14  4560.53  4595.82  4630.72
                             4643.07  5359.26

 Zero-point correction=                           0.186591 (Hartree/Particle)
 Thermal correction to Energy=                    0.201576
 Thermal correction to Enthalpy=                  0.202520
 Thermal correction to Gibbs Free Energy=         0.142479
 Sum of electronic and zero-point Energies=          -1127.996197
 Sum of electronic and thermal Energies=             -1127.981212
 Sum of electronic and thermal Enthalpies=           -1127.980268
 Sum of electronic and thermal Free Energies=        -1128.040309

                     E (Thermal)             CV                S
                      KCal/Mol        Cal/Mol-Kelvin    Cal/Mol-Kelvin
 Total                  126.491             56.521            126.367
 Electronic               0.000              0.000              0.000
 Translational            0.889              2.981             42.316
 Rotational               0.889              2.981             32.970
 Vibrational            124.713             50.559             51.081
 Vibration     1          0.593              1.986              6.947
 Vibration     2          0.595              1.979              5.001
 Vibration     3          0.596              1.974              4.508
 Vibration     4          0.599              1.964              3.951
 Vibration     5          0.601              1.960              3.773
 Vibration     6          0.608              1.935              3.153
 Vibration     7          0.620              1.895              2.591
 Vibration     8          0.630              1.866              2.320
 Vibration     9          0.650              1.802              1.913
 Vibration    10          0.665              1.755              1.699
 Vibration    11          0.677              1.718              1.561
 Vibration    12          0.694              1.669              1.404
 Vibration    13          0.707              1.632              1.301
 Vibration    14          0.735              1.554              1.120
 Vibration    15          0.767              1.468              0.960
 Vibration    16          0.793              1.401              0.853
 Vibration    17          0.811              1.355              0.787
 Vibration    18          0.838              1.290              0.705
 Vibration    19          0.871              1.215              0.620
 Vibration    20          0.885              1.184              0.588
 Vibration    21          0.922              1.104              0.512
 Vibration    22          0.929              1.090              0.498

                           ! Non-Optimized Parameters !
 Normal termination of Gaussian 16 at Fri May 19 16:35:45 2023.
