 Gaussian 16, Revision A.03,
 Gaussian 16:  ES64L-G16RevA.03 25-Dec-2016

 -----------------------------
 # opt freq b3lyp/6-31g(2df,p)
 -----------------------------

 -------------------
 Title Card Required
 -------------------
 Symbolic Z-matrix:
 Charge =  0 Multiplicity = 1

 SCF Done:  E(RB3LYP) =  -1350.47069735     A.U. after   26 cycles
 SCF Done:  E(RB3LYP) =  -1350.51806080     A.U. after   17 cycles
 SCF Done:  E(RB3LYP) =  -1350.58452767     A.U. after   18 cycles
 SCF Done:  E(RB3LYP) =  -1350.62739580     A.U. after   17 cycles
 SCF Done:  E(RB3LYP) =  -1350.64660881     A.U. after   16 cycles
 SCF Done:  E(RB3LYP) =  -1350.66250640     A.U. after   16 cycles
 SCF Done:  E(RB3LYP) =  -1350.67612060     A.U. after   16 cycles
 SCF Done:  E(RB3LYP) =  -1350.68375045     A.U. after   15 cycles
 SCF Done:  E(RB3LYP) =  -1350.68616228     A.U. after   15 cycles
 SCF Done:  E(RB3LYP) =  -1350.68899400     A.U. after   14 cycles
 SCF Done:  E(RB3LYP) =  -1350.70485620     A.U. after   14 cycles
 SCF Done:  E(RB3LYP) =  -1350.70508894     A.U. after   13 cycles
 SCF Done:  E(RB3LYP) =  -1350.70534715     A.U. after   13 cycles
 SCF Done:  E(RB3LYP) =  -1350.70543001     A.U. after   12 cycles
 SCF Done:  E(RB3LYP) =  -1350.70544452     A.U. after   10 cycles
 SCF Done:  E(RB3LYP) =  -1350.70545871     A.U. after   12 cycles
 SCF Done:  E(RB3LYP) =  -1350.70547126     A.U. after   10 cycles
 SCF Done:  E(RB3LYP) =  -1350.70547660     A.U. after   11 cycles
 SCF Done:  E(RB3LYP) =  -1350.70547812     A.U. after    9 cycles
 Optimization completed.
    -- Stationary point found.
 Normal termination of Gaussian 16 at Wed May 17 07:37:09 2023.

 ----------------------------------------------------------------------
 #N Geom=AllCheck Guess=TCheck SCRF=Check GenChk RB3LYP/6-31G(2df,p) Fr
 eq
 ----------------------------------------------------------------------

 Structure from the checkpoint file:  "OdC1CdCd[SH]C2dCSCNdCC2dCCdC1.chk"
 -------------------
 Title Card Required
 -------------------
 Charge =  0 Multiplicity = 1

                         Standard orientation:
 ---------------------------------------------------------------------
 Center     Atomic      Atomic             Coordinates (Angstroms)
 Number     Number       Type             X           Y           Z
 ---------------------------------------------------------------------
      1          8           0        4.305267    1.087969    1.042839
      2          6           0        3.581003    0.498807    0.280015
      3          6           0        3.280905   -0.999047    0.484419
      4          6           0        2.208388   -1.766802    0.352177
      5         16           0        0.650482   -1.885364   -0.300684
      6          6           0       -1.025175   -0.680569   -0.381331
      7          6           0       -2.135838   -1.300999    0.034195
      8         16           0       -3.720266   -0.621399    0.326701
      9          6           0       -3.424199    1.131813   -0.144675
     10          7           0       -2.496969    1.825648    0.720888
     11          6           0       -1.248065    1.648639    0.514692
     12          6           0       -0.658438    0.715278   -0.465000
     13          6           0        0.477338    0.996240   -1.184154
     14          6           0        1.634473    1.621237   -0.614416
     15          6           0        2.813709    1.004099   -0.883773
     16          1           0        4.166003   -1.505793    0.877388
     17          1           0        0.084979   -2.594447    0.695168
     18          1           0       -2.120666   -2.362143    0.282998
     19          1           0       -4.411873    1.589972   -0.062213
     20          1           0       -3.112552    1.138759   -1.196724
     21          1           0       -0.567980    2.266672    1.108283
     22          1           0        0.704065    0.306516   -1.995004
     23          1           0        1.533428    2.221781    0.285357
     24          1           0        2.853195    0.351419   -1.753351
 ---------------------------------------------------------------------

 SCF Done:  E(RB3LYP) =  -1350.70547812     A.U. after    1 cycles

 The electronic state is 1-A.
 Alpha  occ. eigenvalues --  -88.96685 -88.90781 -19.13840 -14.34006 -10.28706
 Alpha  occ. eigenvalues --  -10.25408 -10.24644 -10.24426 -10.22887 -10.22842
 Alpha  occ. eigenvalues --  -10.22412 -10.22245 -10.22214 -10.20852 -10.20688
 Alpha  occ. eigenvalues --   -8.02249  -7.97018  -5.98617  -5.98446  -5.98031
 Alpha  occ. eigenvalues --   -5.93468  -5.93102  -5.92647  -1.04912  -0.94534
 Alpha  occ. eigenvalues --   -0.86877  -0.84051  -0.82580  -0.80779  -0.75350
 Alpha  occ. eigenvalues --   -0.74007  -0.68987  -0.66673  -0.61864  -0.59113
 Alpha  occ. eigenvalues --   -0.56761  -0.55244  -0.52534  -0.51662  -0.49364
 Alpha  occ. eigenvalues --   -0.48319  -0.46077  -0.45728  -0.44344  -0.44055
 Alpha  occ. eigenvalues --   -0.43601  -0.42459  -0.40906  -0.40591  -0.37988
 Alpha  occ. eigenvalues --   -0.37348  -0.36488  -0.33603  -0.32878  -0.31030
 Alpha  occ. eigenvalues --   -0.28436  -0.27390  -0.26629  -0.25326  -0.21966
 Alpha  occ. eigenvalues --   -0.20414
 Alpha virt. eigenvalues --   -0.09068  -0.06182  -0.04129  -0.02851  -0.02583
 Alpha virt. eigenvalues --    0.01542   0.02849   0.02977   0.05437   0.07393
 Alpha virt. eigenvalues --    0.09239   0.09933   0.11804   0.12037   0.13455

 Mulliken charges:
               1
     1  O   -0.308222
     2  C    0.343771
     3  C   -0.236458
     4  C   -0.046451
     5  S   -0.007332
     6  C    0.018320
     7  C   -0.178133
     8  S   -0.055462
     9  C   -0.175962
    10  N   -0.189724
    11  C   -0.039298
    12  C    0.146769
    13  C   -0.216614
    14  C   -0.068828
    15  C   -0.203283
    16  H    0.145448
    17  H    0.178592
    18  H    0.124245
    19  H    0.145535
    20  H    0.141277
    21  H    0.120517
    22  H    0.117953
    23  H    0.127639
    24  H    0.115701
 Sum of Mulliken charges =  -0.00000

 Dipole moment (field-independent basis, Debye):
    X=             -2.1909    Y=             -1.7061    Z=             -2.0720  Tot=              3.4647
 Quadrupole moment (field-independent basis, Debye-Ang):
   XX=           -114.3481   YY=           -100.3050   ZZ=           -102.4742
   XY=             -3.0478   XZ=             -2.7573   YZ=             -4.4540

  Exact polarizability: 326.167  10.376 154.720  -3.222  -4.433 104.917
 Approx polarizability: 696.957  47.827 290.506 -17.536 -18.429 206.779

                      1                      2                      3
                      A                      A                      A
 Frequencies --     42.8892                63.2752                95.9310
 Red. masses --      9.3502                 7.8423                 5.7877
 Frc consts  --      0.0101                 0.0185                 0.0314
 IR Inten    --      1.1541                 0.5771                 1.8962

                      4                      5                      6
                      A                      A                      A
 Frequencies --    138.1894               154.5764               175.5716
 Red. masses --      7.1254                 4.3508                 7.9340
 Frc consts  --      0.0802                 0.0612                 0.1441
 IR Inten    --      6.4995                16.2558                 1.1078

                      7                      8                      9
                      A                      A                      A
 Frequencies --    201.7903               209.7208               228.2244
 Red. masses --      6.5657                 4.8892                 4.1173
 Frc consts  --      0.1575                 0.1267                 0.1264
 IR Inten    --      0.5312                 1.9972                 3.1007

                     10                     11                     12
                      A                      A                      A
 Frequencies --    257.2291               294.4275               323.2109
 Red. masses --      6.9309                 2.9956                 3.8307
 Frc consts  --      0.2702                 0.1530                 0.2358
 IR Inten    --      3.4891                 8.4765                15.3354

                     13                     14                     15
                      A                      A                      A
 Frequencies --    336.8112               348.2357               385.2768
 Red. masses --      4.9714                 6.3686                 4.8283
 Frc consts  --      0.3323                 0.4550                 0.4223
 IR Inten    --      8.5722                 8.8944                22.9721

                     16                     17                     18
                      A                      A                      A
 Frequencies --    414.1482               468.6752               476.4685
 Red. masses --      3.8307                 2.9973                 5.7882
 Frc consts  --      0.3871                 0.3879                 0.7742
 IR Inten    --      6.9598                11.4260                 0.8950

                     19                     20                     21
                      A                      A                      A
 Frequencies --    519.1415               550.6638               580.7958
 Red. masses --      4.4096                 2.6330                 4.0902
 Frc consts  --      0.7002                 0.4704                 0.8129
 IR Inten    --      6.4834                12.3837                17.8495

                     22                     23                     24
                      A                      A                      A
 Frequencies --    613.8574               627.8136               678.9841
 Red. masses --      5.1289                 4.8332                 2.0514
 Frc consts  --      1.1387                 1.1224                 0.5572
 IR Inten    --      9.2709                 2.0621                52.2042

                     25                     26                     27
                      A                      A                      A
 Frequencies --    710.3909               727.1971               755.0989
 Red. masses --      5.4798                 5.2541                 5.2712
 Frc consts  --      1.6293                 1.6370                 1.7708
 IR Inten    --     20.2767                 4.4666                15.6872

                     28                     29                     30
                      A                      A                      A
 Frequencies --    771.8124               815.2532               835.7033
 Red. masses --      4.3029                 1.8187                 1.3678
 Frc consts  --      1.5102                 0.7122                 0.5628
 IR Inten    --     13.9725                 4.8983                24.8019

                     31                     32                     33
                      A                      A                      A
 Frequencies --    857.4944               872.9283               900.7562
 Red. masses --      2.0266                 3.9227                 3.2553
 Frc consts  --      0.8780                 1.7611                 1.5562
 IR Inten    --    111.2422               106.1225                 4.5103

                     34                     35                     36
                      A                      A                      A
 Frequencies --    933.2667               965.7287               969.1343
 Red. masses --      1.5815                 1.5460                 1.7899
 Frc consts  --      0.8116                 0.8495                 0.9905
 IR Inten    --     37.4616                 2.3763                 7.9331

                     37                     38                     39
                      A                      A                      A
 Frequencies --    992.9093              1021.8363              1050.2087
 Red. masses --      4.5808                 3.3591                 1.1700
 Frc consts  --      2.6608                 2.0665                 0.7603
 IR Inten    --     16.9519                26.8884               126.5772

                     40                     41                     42
                      A                      A                      A
 Frequencies --   1099.2192              1133.2468              1202.0114
 Red. masses --      1.1404                 3.4311                 2.0764
 Frc consts  --      0.8118                 2.5961                 1.7676
 IR Inten    --      0.5391                12.2177                 7.7327

                     43                     44                     45
                      A                      A                      A
 Frequencies --   1229.6946              1237.3608              1271.3040
 Red. masses --      1.2297                 1.1187                 1.3011
 Frc consts  --      1.0956                 1.0092                 1.2390
 IR Inten    --      5.2379                 1.8616                 4.8676

                     46                     47                     48
                      A                      A                      A
 Frequencies --   1287.3947              1323.4505              1333.8066
 Red. masses --      1.2271                 1.4549                 1.4120
 Frc consts  --      1.1983                 1.5014                 1.4800
 IR Inten    --      7.5771                 1.3660                 3.2181

                     49                     50                     51
                      A                      A                      A
 Frequencies --   1373.0793              1408.4178              1477.3688
 Red. masses --      1.3815                 1.4342                 1.0922
 Frc consts  --      1.5346                 1.6762                 1.4046
 IR Inten    --      3.3452                 0.3285                 6.3218

                     52                     53                     54
                      A                      A                      A
 Frequencies --   1552.2331              1568.2924              1623.0429
 Red. masses --      6.3505                 3.9983                 9.3097
 Frc consts  --      9.0152                 5.7940                14.4493
 IR Inten    --     35.6382                40.1650               195.7261

                     55                     56                     57
                      A                      A                      A
 Frequencies --   1661.0594              1681.1455              1792.4322
 Red. masses --      9.5999                 9.0720                12.2450
 Frc consts  --     15.6059                15.1065                23.1790
 IR Inten    --     96.1357                99.6351               451.0995

                     58                     59                     60
                      A                      A                      A
 Frequencies --   2616.4970              3021.0426              3077.9746
 Red. masses --      1.0396                 1.0643                 1.0866
 Frc consts  --      4.1932                 5.7230                 6.0652
 IR Inten    --      4.6651                20.2621                13.6822

                     61                     62                     63
                      A                      A                      A
 Frequencies --   3096.1205              3108.8380              3119.7210
 Red. masses --      1.0836                 1.0994                 1.0871
 Frc consts  --      6.1201                 6.2603                 6.2335
 IR Inten    --      2.8230                 9.7907                 1.4732

                     64                     65                     66
                      A                      A                      A
 Frequencies --   3128.7497              3142.2266              3174.0803
 Red. masses --      1.0871                 1.0862                 1.0884
 Frc consts  --      6.2699                 6.3191                 6.4606
 IR Inten    --      1.8292                 6.8050                 8.5011

 - Thermochemistry -
 -------------------
 Temperature   298.150 Kelvin.  Pressure   1.00000 Atm.
 Atom     1 has atomic number  8 and mass  15.99491

 Molecular mass:   235.01256 amu.
 Principal axes and moments of inertia in atomic units:
                           1         2         3
     Eigenvalues --  1765.381806041.924657193.75125
           X            0.99997  -0.00716   0.00039
           Y            0.00716   0.99992  -0.01027
           Z           -0.00032   0.01027   0.99995
 This molecule is an asymmetric top.
 Rotational symmetry number  1.
 Warning -- assumption of classical behavior for rotation
           may cause significant error
 Rotational temperatures (Kelvin)      0.04906     0.01434     0.01204
 Rotational constants (GHZ):           1.02230     0.29870     0.25088
 Zero-point vibrational energy     443248.9 (Joules/Mol)
                                  105.93904 (Kcal/Mol)
 Warning -- explicit consideration of  22 degrees of freedom as
           vibrations may cause significant error
 Vibrational temperatures:     61.71    91.04   138.02   198.82   222.40
          (Kelvin)            252.61   290.33   301.74   328.36   370.10
                              423.62   465.03   484.60   501.03   554.33
                              595.87   674.32   685.53   746.93   792.28
                              835.64   883.20   903.28   976.91  1022.09
                             1046.27  1086.42  1110.47  1172.97  1202.39
                             1233.74  1255.95  1295.99  1342.76  1389.47
                             1394.37  1428.58  1470.19  1511.02  1581.53
                             1630.49  1729.43  1769.26  1780.29  1829.12
                             1852.27  1904.15  1919.05  1975.55  2026.40
                             2125.60  2233.32  2256.42  2335.20  2389.89
                             2418.79  2578.91  3764.56  4346.61  4428.52
                             4454.63  4472.92  4488.58  4501.57  4520.96
                             4566.79

 Zero-point correction=                           0.168825 (Hartree/Particle)
 Thermal correction to Energy=                    0.182830
 Thermal correction to Enthalpy=                  0.183774
 Thermal correction to Gibbs Free Energy=         0.127815
 Sum of electronic and zero-point Energies=          -1350.536654
 Sum of electronic and thermal Energies=             -1350.522648
 Sum of electronic and thermal Enthalpies=           -1350.521704
 Sum of electronic and thermal Free Energies=        -1350.577663

                     E (Thermal)             CV                S
                      KCal/Mol        Cal/Mol-Kelvin    Cal/Mol-Kelvin
 Total                  114.728             53.534            117.777
 Electronic               0.000              0.000              0.000
 Translational            0.889              2.981             42.265
 Rotational               0.889              2.981             32.706
 Vibrational            112.950             47.573             42.806
 Vibration     1          0.595              1.980              5.121
 Vibration     2          0.597              1.972              4.352
 Vibration     3          0.603              1.952              3.535
 Vibration     4          0.614              1.915              2.829
 Vibration     5          0.620              1.898              2.615
 Vibration     6          0.628              1.872              2.375
 Vibration     7          0.639              1.837              2.117
 Vibration     8          0.642              1.826              2.046
 Vibration     9          0.651              1.798              1.893
 Vibration    10          0.667              1.751              1.681
 Vibration    11          0.689              1.684              1.448
 Vibration    12          0.708              1.629              1.294
 Vibration    13          0.718              1.602              1.227
 Vibration    14          0.726              1.579              1.174
 Vibration    15          0.754              1.502              1.018
 Vibration    16          0.778              1.440              0.912
 Vibration    17          0.826              1.320              0.741
 Vibration    18          0.833              1.302              0.720
 Vibration    19          0.874              1.208              0.612
 Vibration    20          0.906              1.138              0.543
 Vibration    21          0.937              1.073              0.484
 Vibration    22          0.973              1.003              0.426

                           ! Non-Optimized Parameters !
 Normal termination of Gaussian 16 at Wed May 17 09:13:44 2023.
