 Gaussian 16, Revision A.03,
 Gaussian 16:  ES64L-G16RevA.03 25-Dec-2016

 -----------------------------
 # opt freq b3lyp/6-31g(2df,p)
 -----------------------------

 -------------------
 Title Card Required
 -------------------
 Symbolic Z-matrix:
 Charge =  0 Multiplicity = 1

 SCF Done:  E(RB3LYP) =  -572.881690068     A.U. after   17 cycles
 SCF Done:  E(RB3LYP) =  -572.931351968     A.U. after   14 cycles
 SCF Done:  E(RB3LYP) =  -572.966464905     A.U. after   14 cycles
 SCF Done:  E(RB3LYP) =  -572.985057936     A.U. after   14 cycles
 SCF Done:  E(RB3LYP) =  -572.987946356     A.U. after   12 cycles
 SCF Done:  E(RB3LYP) =  -572.994743596     A.U. after   15 cycles
 SCF Done:  E(RB3LYP) =  -572.998421590     A.U. after   15 cycles
 SCF Done:  E(RB3LYP) =  -573.000919880     A.U. after   14 cycles
 SCF Done:  E(RB3LYP) =  -573.002550817     A.U. after   14 cycles
 SCF Done:  E(RB3LYP) =  -573.003181639     A.U. after   13 cycles
 SCF Done:  E(RB3LYP) =  -573.003346809     A.U. after   12 cycles
 SCF Done:  E(RB3LYP) =  -573.003374899     A.U. after   10 cycles
 SCF Done:  E(RB3LYP) =  -573.003396661     A.U. after   10 cycles
 SCF Done:  E(RB3LYP) =  -573.003398650     A.U. after   10 cycles
 SCF Done:  E(RB3LYP) =  -573.003400093     A.U. after   10 cycles
 SCF Done:  E(RB3LYP) =  -573.003400919     A.U. after    9 cycles
 SCF Done:  E(RB3LYP) =  -573.003401220     A.U. after    8 cycles
 Optimization completed.
    -- Stationary point found.
 Normal termination of Gaussian 16 at Thu May 18 04:58:04 2023.

 ----------------------------------------------------------------------
 #N Geom=AllCheck Guess=TCheck SCRF=Check GenChk RB3LYP/6-31G(2df,p) Fr
 eq
 ----------------------------------------------------------------------

 Structure from the checkpoint file:  "OdC1CdCC2dCCdCCdC3CqdC23rO1.chk"
 -------------------
 Title Card Required
 -------------------
 Charge =  0 Multiplicity = 1

                         Standard orientation:
 ---------------------------------------------------------------------
 Center     Atomic      Atomic             Coordinates (Angstroms)
 Number     Number       Type             X           Y           Z
 ---------------------------------------------------------------------
      1          8           0       -3.749592   -0.027411   -0.128076
      2          6           0       -2.580998   -0.036623   -0.280693
      3          6           0       -1.541555    0.898485   -0.767347
      4          6           0       -0.903472    1.683841    0.144178
      5          6           0        0.503917    1.229901    0.377167
      6          6           0        1.761134    1.622139    0.041660
      7          6           0        2.929872    0.765920   -0.040050
      8          6           0        3.040242   -0.595056   -0.257338
      9          6           0        2.050588   -1.639016   -0.339466
     10          6           0        0.826964   -1.356781    0.185557
     11          6           0       -0.573127   -1.165836    0.561166
     12          6           0        0.320551   -0.171066    0.699666
     13          8           0       -1.849351   -1.276617    0.154086
     14          1           0       -0.905141    0.419629   -1.509673
     15          1           0       -1.456314    2.147627    0.959993
     16          1           0        1.913467    2.653918   -0.274007
     17          1           0        3.868569    1.310822   -0.082950
     18          1           0        4.058606   -0.925015   -0.462292
     19          1           0        2.307652   -2.590208   -0.786153
 ---------------------------------------------------------------------

 SCF Done:  E(RB3LYP) =  -573.003401220     A.U. after    1 cycles

 The electronic state is 1-A.
 Alpha  occ. eigenvalues --  -19.20633 -19.16764 -10.33949 -10.27739 -10.24394
 Alpha  occ. eigenvalues --  -10.23636 -10.23040 -10.22566 -10.22528 -10.21778
 Alpha  occ. eigenvalues --  -10.21703 -10.19616 -10.18995  -1.11149  -1.05731
 Alpha  occ. eigenvalues --   -0.93233  -0.85236  -0.82010  -0.77995  -0.71596
 Alpha  occ. eigenvalues --   -0.68490  -0.64864  -0.60455  -0.57435  -0.54353
 Alpha  occ. eigenvalues --   -0.53217  -0.51117  -0.47810  -0.47402  -0.46739
 Alpha  occ. eigenvalues --   -0.45764  -0.44076  -0.41670  -0.40533  -0.39433
 Alpha  occ. eigenvalues --   -0.39119  -0.36560  -0.34655  -0.33683  -0.31258
 Alpha  occ. eigenvalues --   -0.29650  -0.28978  -0.26395  -0.18748
 Alpha virt. eigenvalues --   -0.08950  -0.06540  -0.04048  -0.00562   0.06118
 Alpha virt. eigenvalues --    0.07866   0.09306   0.11142   0.11738   0.13219
 Alpha virt. eigenvalues --    0.14122   0.15898   0.17243   0.18784   0.19487

 Mulliken charges:
               1
     1  O   -0.246548
     2  C    0.420658
     3  C   -0.232008
     4  C   -0.188448
     5  C    0.078014
     6  C   -0.157004
     7  C   -0.146446
     8  C   -0.024261
     9  C   -0.370214
    10  C    0.273848
    11  C    0.056544
    12  C    0.100479
    13  O   -0.257322
    14  H    0.134897
    15  H    0.133322
    16  H    0.119100
    17  H    0.092218
    18  H    0.107650
    19  H    0.105521
 Sum of Mulliken charges =  -0.00000

 Dipole moment (field-independent basis, Debye):
    X=              3.2972    Y=              1.5513    Z=             -0.4774  Tot=              3.6751
 Quadrupole moment (field-independent basis, Debye-Ang):
   XX=            -79.9661   YY=            -69.7739   ZZ=            -72.3007
   XY=             -1.3985   XZ=             -1.7807   YZ=              2.5546

  Exact polarizability: 191.802  -3.838 120.789  -7.113   4.054  64.074
 Approx polarizability: 363.922   9.918 244.786 -18.828  10.888 122.549

                      1                      2                      3
                      A                      A                      A
 Frequencies --     73.0797               139.7353               145.9393
 Red. masses --      7.9638                 6.2446                 4.5981
 Frc consts  --      0.0251                 0.0718                 0.0577
 IR Inten    --      0.4595                 1.5883                11.3024

                      4                      5                      6
                      A                      A                      A
 Frequencies --    188.9223               246.9770               324.4636
 Red. masses --      2.7531                 6.7485                 2.3909
 Frc consts  --      0.0579                 0.2425                 0.1483
 IR Inten    --     12.3522                 1.0204                 6.8803

                      7                      8                      9
                      A                      A                      A
 Frequencies --    341.2645               378.5000               413.0888
 Red. masses --      6.5483                 6.7894                 7.2036
 Frc consts  --      0.4493                 0.5731                 0.7242
 IR Inten    --      0.7744                30.2160                11.7189

                     10                     11                     12
                      A                      A                      A
 Frequencies --    447.9144               463.6195               517.7068
 Red. masses --      7.5186                 6.9094                 6.2365
 Frc consts  --      0.8887                 0.8750                 0.9848
 IR Inten    --      1.7584                51.4021                95.3717

                     13                     14                     15
                      A                      A                      A
 Frequencies --    521.0498               596.1258               631.8882
 Red. masses --      5.8421                 5.3674                 6.2404
 Frc consts  --      0.9345                 1.1238                 1.4681
 IR Inten    --      5.5178                 8.9069                25.2736

                     16                     17                     18
                      A                      A                      A
 Frequencies --    675.8934               702.5574               720.9627
 Red. masses --      5.1833                 6.5833                 4.9239
 Frc consts  --      1.3951                 1.9145                 1.5080
 IR Inten    --     38.7777                 4.5152                 8.5784

                     19                     20                     21
                      A                      A                      A
 Frequencies --    745.0474               775.1850               792.3481
 Red. masses --      1.3680                 2.9836                 2.9701
 Frc consts  --      0.4474                 1.0563                 1.0986
 IR Inten    --     62.4465                84.1449                54.2685

                     22                     23                     24
                      A                      A                      A
 Frequencies --    812.1160               820.7084               901.4399
 Red. masses --      2.2763                 3.2047                 2.8574
 Frc consts  --      0.8845                 1.2718                 1.3680
 IR Inten    --    134.5769                13.8542                11.9587

                     25                     26                     27
                      A                      A                      A
 Frequencies --    927.9063               960.4280               973.9753
 Red. masses --      5.0555                 5.1435                 1.7079
 Frc consts  --      2.5646                 2.7954                 0.9546
 IR Inten    --     23.2348                23.7455                 5.7370

                     28                     29                     30
                      A                      A                      A
 Frequencies --    989.2364              1036.6686              1053.3137
 Red. masses --      1.3500                 4.2802                 1.3761
 Frc consts  --      0.7783                 2.7102                 0.8996
 IR Inten    --      5.6008                 7.4103                11.3203

                     31                     32                     33
                      A                      A                      A
 Frequencies --   1089.8956              1112.7175              1259.2113
 Red. masses --      3.4082                 2.0717                 1.2561
 Frc consts  --      2.3853                 1.5113                 1.1735
 IR Inten    --     28.7561                11.0041                 6.6917

                     34                     35                     36
                      A                      A                      A
 Frequencies --   1264.2646              1272.0017              1332.1093
 Red. masses --      1.5536                 2.2643                 1.8694
 Frc consts  --      1.4630                 2.1586                 1.9545
 IR Inten    --     50.9472                71.8236                96.1950

                     37                     38                     39
                      A                      A                      A
 Frequencies --   1337.6126              1367.2554              1384.7711
 Red. masses --      1.4076                 2.1457                 2.3897
 Frc consts  --      1.4838                 2.3633                 2.6999
 IR Inten    --     26.4712                41.4237                60.7607

                     40                     41                     42
                      A                      A                      A
 Frequencies --   1463.9875              1528.2222              1578.4922
 Red. masses --      1.6458                 4.5451                 6.2342
 Frc consts  --      2.0783                 6.2541                 9.1520
 IR Inten    --      2.2327                49.1451               148.7616

                     43                     44                     45
                      A                      A                      A
 Frequencies --   1637.6322              1833.4437              1944.5877
 Red. masses --      5.3024                11.6138                12.8177
 Frc consts  --      8.3783                23.0016                28.5572
 IR Inten    --     42.7647                55.2197               625.8796

                     46                     47                     48
                      A                      A                      A
 Frequencies --   3126.7349              3128.4376              3135.5137
 Red. masses --      1.0845                 1.0875                 1.0876
 Frc consts  --      6.2470                 6.2707                 6.3000
 IR Inten    --     14.4316                 1.4895                10.5836

                     49                     50                     51
                      A                      A                      A
 Frequencies --   3136.7720              3166.4105              3211.2816
 Red. masses --      1.0856                 1.0890                 1.0900
 Frc consts  --      6.2936                 6.4331                 6.6225
 IR Inten    --     13.6710                23.8418                 6.4000

 - Thermochemistry -
 -------------------
 Temperature   298.150 Kelvin.  Pressure   1.00000 Atm.
 Atom     1 has atomic number  8 and mass  15.99491

 Molecular mass:   170.03678 amu.
 Principal axes and moments of inertia in atomic units:
                           1         2         3
     Eigenvalues --   892.794732806.867513507.26825
           X            0.99997  -0.00525  -0.00641
           Y            0.00534   0.99987   0.01536
           Z            0.00633  -0.01539   0.99986
 This molecule is an asymmetric top.
 Rotational symmetry number  1.
 Warning -- assumption of classical behavior for rotation
           may cause significant error
 Rotational temperatures (Kelvin)      0.09701     0.03086     0.02470
 Rotational constants (GHZ):           2.02145     0.64297     0.51457
 Zero-point vibrational energy     350681.8 (Joules/Mol)
                                   83.81496 (Kcal/Mol)
 Warning -- explicit consideration of  14 degrees of freedom as
           vibrations may cause significant error
 Vibrational temperatures:    105.15   201.05   209.97   271.82   355.34
          (Kelvin)            466.83   491.00   544.58   594.34   644.45
                              667.05   744.86   749.67   857.69   909.15
                              972.46  1010.82  1037.30  1071.96  1115.32
                             1140.01  1168.45  1180.82  1296.97  1335.05
                             1381.84  1401.33  1423.29  1491.53  1515.48
                             1568.12  1600.95  1811.72  1818.99  1830.13
                             1916.61  1924.53  1967.18  1992.38  2106.35
                             2198.77  2271.10  2356.19  2637.92  2797.83
                             4498.67  4501.12  4511.30  4513.12  4555.76
                             4620.32

 Zero-point correction=                           0.133568 (Hartree/Particle)
 Thermal correction to Energy=                    0.143379
 Thermal correction to Enthalpy=                  0.144323
 Thermal correction to Gibbs Free Energy=         0.098414
 Sum of electronic and zero-point Energies=           -572.869834
 Sum of electronic and thermal Energies=              -572.860022
 Sum of electronic and thermal Enthalpies=            -572.859078
 Sum of electronic and thermal Free Energies=         -572.904987

                     E (Thermal)             CV                S
                      KCal/Mol        Cal/Mol-Kelvin    Cal/Mol-Kelvin
 Total                   89.972             39.188             96.624
 Electronic               0.000              0.000              0.000
 Translational            0.889              2.981             41.300
 Rotational               0.889              2.981             30.553
 Vibrational             88.194             33.226             24.770
 Vibration     1          0.599              1.967              4.069
 Vibration     2          0.615              1.914              2.807
 Vibration     3          0.617              1.907              2.725
 Vibration     4          0.633              1.855              2.238
 Vibration     5          0.661              1.768              1.752
 Vibration     6          0.709              1.627              1.288
 Vibration     7          0.721              1.593              1.206
 Vibration     8          0.749              1.516              1.045
 Vibration     9          0.777              1.442              0.916
 Vibration    10          0.807              1.365              0.802
 Vibration    11          0.821              1.331              0.756
 Vibration    12          0.873              1.211              0.615
 Vibration    13          0.876              1.203              0.608
 Vibration    14          0.954              1.040              0.456

 Optimization completed.
    -- Stationary point found.
 Normal termination of Gaussian 16 at Thu May 18 05:56:36 2023.
