 Gaussian 16, Revision A.03,
 Gaussian 16:  ES64L-G16RevA.03 25-Dec-2016

 -----------------------------
 # opt freq b3lyp/6-31g(2df,p)
 -----------------------------

 -------------------
 Title Card Required
 -------------------
 Symbolic Z-matrix:
 Charge =  0 Multiplicity = 1

 SCF Done:  E(RB3LYP) =  -912.104607143     A.U. after   21 cycles
 SCF Done:  E(RB3LYP) =  -912.122877207     A.U. after   14 cycles
 SCF Done:  E(RB3LYP) =  -912.126298293     A.U. after   14 cycles
 SCF Done:  E(RB3LYP) =  -912.126762630     A.U. after   12 cycles
 SCF Done:  E(RB3LYP) =  -912.126833751     A.U. after   12 cycles
 SCF Done:  E(RB3LYP) =  -912.126741753     A.U. after   13 cycles
 SCF Done:  E(RB3LYP) =  -912.126879335     A.U. after   12 cycles
 SCF Done:  E(RB3LYP) =  -912.126884650     A.U. after    9 cycles
 SCF Done:  E(RB3LYP) =  -912.126887552     A.U. after   10 cycles
 SCF Done:  E(RB3LYP) =  -912.126887879     A.U. after    8 cycles
 Optimization completed.
    -- Stationary point found.
 Normal termination of Gaussian 16 at Wed May 17 14:25:18 2023.

 ----------------------------------------------------------------------
 #N Geom=AllCheck Guess=TCheck SCRF=Check GenChk RB3LYP/6-31G(2df,p) Fr
 eq
 ----------------------------------------------------------------------

 Structure from the checkpoint file:  "OdC1CdC2CdCCdC2NdC1C1dCS1.chk"
 -------------------
 Title Card Required
 -------------------
 Charge =  0 Multiplicity = 1

                         Standard orientation:
 ---------------------------------------------------------------------
 Center     Atomic      Atomic             Coordinates (Angstroms)
 Number     Number       Type             X           Y           Z
 ---------------------------------------------------------------------
      1          8           0        0.825983    2.512747   -0.000033
      2          6           0        0.094989    1.537970   -0.000040
      3          6           0       -1.377561    1.656658    0.000054
      4          6           0       -2.108460    0.528724    0.000012
      5          6           0       -3.553341    0.264471    0.000040
      6          6           0       -3.716021   -1.081130   -0.000034
      7          6           0       -2.406734   -1.746066   -0.000009
      8          6           0       -1.434398   -0.785324   -0.000019
      9          7           0       -0.081242   -0.956735   -0.000007
     10          6           0        0.649947    0.127511   -0.000012
     11          6           0        2.061051    0.033666   -0.000007
     12          6           0        3.255278    0.522315   -0.000014
     13         16           0        3.393181   -1.274955    0.000025
     14          1           0       -1.791039    2.660177    0.000144
     15          1           0       -4.323850    1.021780    0.000056
     16          1           0       -4.660613   -1.608787   -0.000070
     17          1           0       -2.242518   -2.814686   -0.000002
     18          1           0        3.899449    1.383204   -0.000038
 ---------------------------------------------------------------------

 SCF Done:  E(RB3LYP) =  -912.126887879     A.U. after    1 cycles

 The electronic state is 1-A.
 Alpha  occ. eigenvalues --  -88.88834 -19.14891 -14.34845 -10.28825 -10.25314
 Alpha  occ. eigenvalues --  -10.25169 -10.24583 -10.22698 -10.22624 -10.22303
 Alpha  occ. eigenvalues --  -10.21470 -10.21300 -10.20765  -7.94937  -5.91468
 Alpha  occ. eigenvalues --   -5.91083  -5.90421  -1.05616  -0.96160  -0.89079
 Alpha  occ. eigenvalues --   -0.87338  -0.80245  -0.75160  -0.70320  -0.66518
 Alpha  occ. eigenvalues --   -0.62343  -0.60951  -0.57386  -0.56009  -0.54305
 Alpha  occ. eigenvalues --   -0.51625  -0.47535  -0.45634  -0.44893  -0.43478
 Alpha  occ. eigenvalues --   -0.42057  -0.40110  -0.39526  -0.39232  -0.38465
 Alpha  occ. eigenvalues --   -0.36356  -0.33762  -0.32125  -0.30588  -0.28451
 Alpha  occ. eigenvalues --   -0.24888  -0.24006  -0.19258
 Alpha virt. eigenvalues --   -0.13298  -0.06221  -0.00900  -0.00042   0.04097
 Alpha virt. eigenvalues --    0.06224   0.06393   0.10708   0.11472   0.13001
 Alpha virt. eigenvalues --    0.14841   0.15232   0.16246   0.17894   0.18869

 Mulliken charges:
               1
     1  O   -0.330892
     2  C    0.380609
     3  C   -0.370942
     4  C    0.324784
     5  C   -0.226721
     6  C   -0.071832
     7  C   -0.257803
     8  C    0.319862
     9  N   -0.391372
    10  C   -0.012001
    11  C    0.358303
    12  C   -0.242394
    13  S   -0.176142
    14  H    0.129722
    15  H    0.120042
    16  H    0.121086
    17  H    0.130034
    18  H    0.195656
 Sum of Mulliken charges =  -0.00000

 Dipole moment (field-independent basis, Debye):
    X=             -3.1303    Y=              0.7180    Z=             -0.0000  Tot=              3.2116
 Quadrupole moment (field-independent basis, Debye-Ang):
   XX=            -65.7736   YY=            -80.5784   ZZ=            -81.2851
   XY=              5.0445   XZ=             -0.0001   YZ=              0.0003

  Exact polarizability: 318.774  10.697 149.441  -0.000   0.001  54.752
 Approx polarizability: 742.189  98.718 331.526  -0.000   0.002  93.937

                      1                      2                      3
                      A                      A                      A
 Frequencies --     69.2878                89.6907               101.7642
 Red. masses --      6.4235                 9.3461                 4.4212
 Frc consts  --      0.0182                 0.0443                 0.0270
 IR Inten    --      1.5981                 0.9852                 7.0130

                      4                      5                      6
                      A                      A                      A
 Frequencies --    114.2173               236.4774               239.4896
 Red. masses --      7.1289                 3.9260                14.3550
 Frc consts  --      0.0548                 0.1294                 0.4851
 IR Inten    --      0.1169                 3.3488                 0.6330

                      7                      8                      9
                      A                      A                      A
 Frequencies --    255.6936               354.1681               419.3486
 Red. masses --      4.7424                 5.4174                 6.4794
 Frc consts  --      0.1827                 0.4004                 0.6713
 IR Inten    --      1.9299                 4.1561                 0.4329

                     10                     11                     12
                      A                      A                      A
 Frequencies --    435.7879               471.5189               479.9215
 Red. masses --      5.4131                 9.1835                 4.4052
 Frc consts  --      0.6057                 1.2030                 0.5978
 IR Inten    --      0.7556                 5.0450                 6.7184

                     13                     14                     15
                      A                      A                      A
 Frequencies --    497.9156               545.9390               624.8156
 Red. masses --      7.0361                 3.2106                 5.9546
 Frc consts  --      1.0278                 0.5638                 1.3696
 IR Inten    --      2.8673                 5.4524               158.4771

                     16                     17                     18
                      A                      A                      A
 Frequencies --    674.9820               691.9246               726.1912
 Red. masses --      9.5013                 1.8178                 8.6756
 Frc consts  --      2.5505                 0.5128                 2.6956
 IR Inten    --      5.0080                 8.0699                72.4196

                     19                     20                     21
                      A                      A                      A
 Frequencies --    731.7074               757.1869               790.1561
 Red. masses --      1.5065                 7.8584                 2.4663
 Frc consts  --      0.4752                 2.6546                 0.9073
 IR Inten    --     32.3483                33.8100                 9.1768

                     22                     23                     24
                      A                      A                      A
 Frequencies --    810.9325               811.4731               855.5156
 Red. masses --      3.2679                 6.0249                 3.4480
 Frc consts  --      1.2662                 2.3375                 1.4869
 IR Inten    --      1.3933                27.5046                 6.1821

                     25                     26                     27
                      A                      A                      A
 Frequencies --    881.2916               936.6337               944.3869
 Red. masses --      1.5316                 1.6438                 1.3932
 Frc consts  --      0.7008                 0.8496                 0.7321
 IR Inten    --     12.6300                20.7503                 0.9512

                     28                     29                     30
                      A                      A                      A
 Frequencies --    967.3691               988.7470              1082.4207
 Red. masses --      1.2388                 1.8581                 4.9038
 Frc consts  --      0.6830                 1.0703                 3.3852
 IR Inten    --      5.2135                 0.2248                15.4677

                     31                     32                     33
                      A                      A                      A
 Frequencies --   1107.9372              1156.2148              1255.0903
 Red. masses --      1.2034                 3.0108                 1.8632
 Frc consts  --      0.8703                 2.3714                 1.7293
 IR Inten    --     10.7517                 2.5105                25.1597

                     34                     35                     36
                      A                      A                      A
 Frequencies --   1261.5564              1281.2111              1352.0795
 Red. masses --      2.3846                 4.6606                 2.7562
 Frc consts  --      2.2361                 4.5075                 2.9687
 IR Inten    --      2.3080                11.7274                19.6922

                     37                     38                     39
                      A                      A                      A
 Frequencies --   1385.5444              1490.7729              1545.9341
 Red. masses --      2.7746                 8.6613                 9.7179
 Frc consts  --      3.1383                11.3411                13.6837
 IR Inten    --     14.5773                12.3535                11.2708

                     40                     41                     42
                      A                      A                      A
 Frequencies --   1609.3064              1701.5580              1733.1165
 Red. masses --      5.6697                 9.0770                12.0464
 Frc consts  --      8.6515                15.4841                21.3189
 IR Inten    --     10.5522                 0.8778               172.0997

                     43                     44                     45
                      A                      A                      A
 Frequencies --   1834.2657              3188.7189              3220.4583
 Red. masses --      8.1275                 1.0930                 1.0881
 Frc consts  --     16.1113                 6.5478                 6.6487
 IR Inten    --    172.4848                 3.1490                16.9540

                     46                     47                     48
                      A                      A                      A
 Frequencies --   3238.9764              3247.8003              3307.9886
 Red. masses --      1.0943                 1.1040                 1.1157
 Frc consts  --      6.7640                 6.8610                 7.1933
 IR Inten    --      4.0763                 3.6172                33.7622

 - Thermochemistry -
 -------------------
 Temperature   298.150 Kelvin.  Pressure   1.00000 Atm.
 Atom     1 has atomic number  8 and mass  15.99491

 Molecular mass:   187.00919 amu.
 Principal axes and moments of inertia in atomic units:
                           1         2         3
     Eigenvalues --  1119.059663978.255535097.31519
           X            0.99993   0.01224  -0.00000
           Y           -0.01224   0.99993   0.00000
           Z            0.00000  -0.00000   1.00000
 This molecule is an asymmetric top.
 Rotational symmetry number  1.
 Warning -- assumption of classical behavior for rotation
           may cause significant error
 Rotational temperatures (Kelvin)      0.07740     0.02177     0.01699
 Rotational constants (GHZ):           1.61273     0.45365     0.35406
 Zero-point vibrational energy     314052.5 (Joules/Mol)
                                   75.06036 (Kcal/Mol)
 Warning -- explicit consideration of  14 degrees of freedom as
           vibrations may cause significant error
 Vibrational temperatures:     99.69   129.04   146.42   164.33   340.24
          (Kelvin)            344.57   367.89   509.57   603.35   627.00
                              678.41   690.50   716.39   785.48   898.97
                              971.15   995.53  1044.83  1052.76  1089.42
                             1136.86  1166.75  1167.53  1230.90  1267.98
                             1347.61  1358.76  1391.83  1422.59  1557.36
                             1594.07  1663.54  1805.80  1815.10  1843.38
                             1945.34  1993.49  2144.89  2224.25  2315.43
                             2448.16  2493.57  2639.10  4587.86  4633.52
                             4660.16  4672.86  4759.46

 Zero-point correction=                           0.119616 (Hartree/Particle)
 Thermal correction to Energy=                    0.130101
 Thermal correction to Enthalpy=                  0.131045
 Thermal correction to Gibbs Free Energy=         0.082590
 Sum of electronic and zero-point Energies=           -912.007272
 Sum of electronic and thermal Energies=              -911.996787
 Sum of electronic and thermal Enthalpies=            -911.995842
 Sum of electronic and thermal Free Energies=         -912.044298

                     E (Thermal)             CV                S
                      KCal/Mol        Cal/Mol-Kelvin    Cal/Mol-Kelvin
 Total                   81.640             40.004            101.984
 Electronic               0.000              0.000              0.000
 Translational            0.889              2.981             41.584
 Rotational               0.889              2.981             31.496
 Vibrational             79.862             34.043             28.904
 Vibration     1          0.598              1.969              4.173
 Vibration     2          0.602              1.956              3.667
 Vibration     3          0.604              1.948              3.420
 Vibration     4          0.607              1.938              3.196
 Vibration     5          0.655              1.785              1.829
 Vibration     6          0.657              1.780              1.807
 Vibration     7          0.666              1.753              1.691
 Vibration     8          0.730              1.567              1.148
 Vibration     9          0.782              1.428              0.894
 Vibration    10          0.796              1.392              0.840
 Vibration    11          0.828              1.313              0.733
 Vibration    12          0.836              1.295              0.710
 Vibration    13          0.853              1.255              0.663
 Vibration    14          0.901              1.149              0.553

                           ! Non-Optimized Parameters !
 Normal termination of Gaussian 16 at Wed May 17 15:10:22 2023.
