 Gaussian 16, Revision A.03,
 Gaussian 16:  ES64L-G16RevA.03 25-Dec-2016

 -----------------------------
 # opt freq b3lyp/6-31g(2df,p)
 -----------------------------

 -------------------
 Title Card Required
 -------------------
 Symbolic Z-matrix:
 Charge =  0 Multiplicity = 1

 SCF Done:  E(RB3LYP) =  -778.176413579     A.U. after   17 cycles
 SCF Done:  E(RB3LYP) =  -778.235118466     A.U. after   14 cycles
 SCF Done:  E(RB3LYP) =  -778.287169487     A.U. after   15 cycles
 SCF Done:  E(RB3LYP) =  -778.312289344     A.U. after   14 cycles
 SCF Done:  E(RB3LYP) =  -778.325354772     A.U. after   14 cycles
 SCF Done:  E(RB3LYP) =  -778.332244709     A.U. after   14 cycles
 SCF Done:  E(RB3LYP) =  -778.337380385     A.U. after   14 cycles
 SCF Done:  E(RB3LYP) =  -778.339606757     A.U. after   14 cycles
 SCF Done:  E(RB3LYP) =  -778.340035346     A.U. after   13 cycles
 SCF Done:  E(RB3LYP) =  -778.340399738     A.U. after   12 cycles
 SCF Done:  E(RB3LYP) =  -778.340533080     A.U. after   11 cycles
 SCF Done:  E(RB3LYP) =  -778.340553583     A.U. after   11 cycles
 SCF Done:  E(RB3LYP) =  -778.340567233     A.U. after   11 cycles
 SCF Done:  E(RB3LYP) =  -778.340574647     A.U. after   10 cycles
 SCF Done:  E(RB3LYP) =  -778.340578794     A.U. after   10 cycles
 SCF Done:  E(RB3LYP) =  -778.340582119     A.U. after   10 cycles
 SCF Done:  E(RB3LYP) =  -778.340584168     A.U. after   10 cycles
 SCF Done:  E(RB3LYP) =  -778.340584781     A.U. after    9 cycles
 SCF Done:  E(RB3LYP) =  -778.340584939     A.U. after    8 cycles
 Optimization completed.
    -- Stationary point found.
 Normal termination of Gaussian 16 at Tue May 16 20:12:39 2023.

 ----------------------------------------------------------------------
 #N Geom=AllCheck Guess=TCheck SCRF=Check GenChk RB3LYP/6-31G(2df,p) Fr
 eq
 ----------------------------------------------------------------------

 Structure from the checkpoint file:  "OdC1NdCNdC2CdCCdCCdC2c2ncccc21.chk"
 -------------------
 Title Card Required
 -------------------
 Charge =  0 Multiplicity = 1

                         Standard orientation:
 ---------------------------------------------------------------------
 Center     Atomic      Atomic             Coordinates (Angstroms)
 Number     Number       Type             X           Y           Z
 ---------------------------------------------------------------------
      1          8           0       -2.492264    1.885655   -1.733295
      2          6           0       -1.762171    1.496967   -0.844633
      3          7           0       -0.690507    2.108214   -0.282999
      4          6           0       -0.331307    2.109240    0.953750
      5          7           0        0.897006    1.734368    1.363256
      6          6           0        1.462551    0.733854    0.714756
      7          6           0        2.888760    0.632908    0.933665
      8          6           0        3.867919   -0.036207    0.266582
      9          6           0        3.758708   -0.887017   -0.864994
     10          6           0        2.601559   -1.357102   -1.408441
     11          6           0        1.268737   -1.150612   -0.956289
     12          6           0        0.716435   -0.289794   -0.040626
     13          6           0       -0.753107   -0.619342    0.221829
     14          7           0       -0.890767   -1.809586    0.820599
     15          6           0       -2.114656   -2.318919    0.973168
     16          6           0       -3.263892   -1.713045    0.475525
     17          6           0       -3.125420   -0.491611   -0.168720
     18          6           0       -1.867803    0.099639   -0.261838
     19          1           0       -0.996508    2.477287    1.746344
     20          1           0        3.204913    1.284698    1.742665
     21          1           0        4.879879    0.141738    0.621489
     22          1           0        4.692132   -1.213425   -1.313973
     23          1           0        2.694897   -2.033201   -2.253787
     24          1           0        0.549539   -1.807344   -1.437553
     25          1           0       -2.171570   -3.268644    1.499479
     26          1           0       -4.232259   -2.187192    0.589788
     27          1           0       -3.970915    0.036114   -0.596485
 ---------------------------------------------------------------------

 SCF Done:  E(RB3LYP) =  -778.340584939     A.U. after    1 cycles

 The electronic state is 1-A.
 Alpha  occ. eigenvalues --  -19.09477 -14.33684 -14.32338 -14.31072 -10.27388
 Alpha  occ. eigenvalues --  -10.27011 -10.26744 -10.24649 -10.24142 -10.22977
 Alpha  occ. eigenvalues --  -10.22915 -10.22720 -10.22613 -10.22578 -10.22322
 Alpha  occ. eigenvalues --  -10.20987 -10.20893 -10.20489  -1.02049  -0.97229
 Alpha  occ. eigenvalues --   -0.95431  -0.89569  -0.86237  -0.82030  -0.81129
 Alpha  occ. eigenvalues --   -0.79216  -0.75875  -0.70804  -0.68273  -0.65302
 Alpha  occ. eigenvalues --   -0.63004  -0.62173  -0.57350  -0.56329  -0.55047
 Alpha  occ. eigenvalues --   -0.52641  -0.51842  -0.49645  -0.49072  -0.47752
 Alpha  occ. eigenvalues --   -0.46312  -0.44412  -0.43336  -0.41909  -0.41197
 Alpha  occ. eigenvalues --   -0.40970  -0.39643  -0.39370  -0.38710  -0.37626
 Alpha  occ. eigenvalues --   -0.37117  -0.34986  -0.33627  -0.31112  -0.29374
 Alpha  occ. eigenvalues --   -0.27715  -0.27227  -0.26216  -0.25570  -0.23095
 Alpha  occ. eigenvalues --   -0.22154
 Alpha virt. eigenvalues --   -0.09531  -0.08845  -0.03918  -0.03194  -0.00058
 Alpha virt. eigenvalues --    0.05596   0.06183   0.08591   0.09241   0.10320
 Alpha virt. eigenvalues --    0.10696   0.13629   0.14283   0.15596   0.15937

 Mulliken charges:
               1
     1  O   -0.370991
     2  C    0.302102
     3  N   -0.247058
     4  C    0.007001
     5  N   -0.324911
     6  C    0.242268
     7  C   -0.097105
     8  C   -0.080910
     9  C   -0.097569
    10  C   -0.088071
    11  C   -0.069189
    12  C    0.100536
    13  C    0.111765
    14  N   -0.306928
    15  C   -0.014479
    16  C   -0.126951
    17  C   -0.137966
    18  C    0.110571
    19  H    0.114198
    20  H    0.133109
    21  H    0.118165
    22  H    0.116916
    23  H    0.117222
    24  H    0.122625
    25  H    0.115644
    26  H    0.111402
    27  H    0.138604
 Sum of Mulliken charges =  -0.00000

 Dipole moment (field-independent basis, Debye):
    X=              3.2686    Y=             -4.1860    Z=              1.2689  Tot=              5.4604
 Quadrupole moment (field-independent basis, Debye-Ang):
   XX=            -80.8501   YY=           -105.3880   ZZ=           -104.1996
   XY=              6.0078   XZ=            -10.7260   YZ=              9.3554

  Exact polarizability: 257.299 -12.332 160.511  -0.564  14.035 125.041
 Approx polarizability: 419.762 -50.219 304.572   9.097  37.886 250.241

                      1                      2                      3
                      A                      A                      A
 Frequencies --     45.1981                58.3320                91.8540
 Red. masses --      9.4299                 4.1518                 5.2278
 Frc consts  --      0.0113                 0.0083                 0.0260
 IR Inten    --      3.4434                 4.7969                 6.6708

                      4                      5                      6
                      A                      A                      A
 Frequencies --    106.1414               122.0877               186.8662
 Red. masses --      5.0623                 5.1846                 5.9142
 Frc consts  --      0.0336                 0.0455                 0.1217
 IR Inten    --      2.1220                 3.2876                 6.0233

                      7                      8                      9
                      A                      A                      A
 Frequencies --    231.8719               246.7735               263.6719
 Red. masses --      4.8912                 3.0789                 5.1997
 Frc consts  --      0.1549                 0.1105                 0.2130
 IR Inten    --      5.6293                 5.5006                58.4543

                     10                     11                     12
                      A                      A                      A
 Frequencies --    305.7713               340.5125               368.6055
 Red. masses --      6.1000                 5.4263                 5.9159
 Frc consts  --      0.3360                 0.3707                 0.4736
 IR Inten    --      2.1717                 2.3856                 5.0729

                     13                     14                     15
                      A                      A                      A
 Frequencies --    388.1066               410.1081               419.5672
 Red. masses --      4.9529                 5.1520                 5.3485
 Frc consts  --      0.4396                 0.5105                 0.5547
 IR Inten    --     36.5111                 7.4562                 6.4495

                     16                     17                     18
                      A                      A                      A
 Frequencies --    493.0187               521.5053               534.7705
 Red. masses --      5.7217                 5.5657                 4.5790
 Frc consts  --      0.8194                 0.8918                 0.7715
 IR Inten    --      3.7620                23.4429                 1.2259

                     19                     20                     21
                      A                      A                      A
 Frequencies --    582.8893               607.1345               632.6685
 Red. masses --      4.0918                 3.0007                 8.3571
 Frc consts  --      0.8191                 0.6517                 1.9709
 IR Inten    --      6.0836                 0.5225                 4.5025

                     22                     23                     24
                      A                      A                      A
 Frequencies --    659.8610               690.6409               715.4832
 Red. masses --      7.6877                 5.2977                 2.6085
 Frc consts  --      1.9722                 1.4888                 0.7867
 IR Inten    --     17.4055                59.0320                11.2485

                     25                     26                     27
                      A                      A                      A
 Frequencies --    737.0656               768.4445               786.3656
 Red. masses --      6.1180                 4.6757                 1.9438
 Frc consts  --      1.9583                 1.6267                 0.7082
 IR Inten    --      9.2715                14.1395                21.3372

                     28                     29                     30
                      A                      A                      A
 Frequencies --    815.8020               847.7135               855.5483
 Red. masses --      2.2722                 6.5430                 2.2515
 Frc consts  --      0.8910                 2.7703                 0.9710
 IR Inten    --     24.2878                91.7812                11.0419

                     31                     32                     33
                      A                      A                      A
 Frequencies --    879.6498               900.1417               940.1585
 Red. masses --      1.7368                 4.5261                 4.6390
 Frc consts  --      0.7918                 2.1607                 2.4159
 IR Inten    --     17.5834                 1.1746                 4.7801

                     34                     35                     36
                      A                      A                      A
 Frequencies --    965.7477               981.9004               996.8334
 Red. masses --      1.4878                 1.4073                 2.0713
 Frc consts  --      0.8176                 0.7994                 1.2127
 IR Inten    --      6.9835                 0.2412                48.5815

                     37                     38                     39
                      A                      A                      A
 Frequencies --   1008.2156              1015.2390              1020.7455
 Red. masses --      1.4336                 1.9081                 1.7603
 Frc consts  --      0.8586                 1.1588                 1.0806
 IR Inten    --      5.5625                 1.3028                 0.1672

                     40                     41                     42
                      A                      A                      A
 Frequencies --   1039.9333              1066.1988              1079.5524
 Red. masses --      1.3356                 3.9525                 2.7367
 Frc consts  --      0.8510                 2.6473                 1.8792
 IR Inten    --      1.8040                 9.3741                 1.5918

                     43                     44                     45
                      A                      A                      A
 Frequencies --   1099.9636              1126.3899              1194.8825
 Red. masses --      2.3547                 2.1416                 2.3418
 Frc consts  --      1.6786                 1.6009                 1.9699
 IR Inten    --      9.8851                84.4904                19.8492

                     46                     47                     48
                      A                      A                      A
 Frequencies --   1207.4006              1232.6397              1254.3245
 Red. masses --      2.7061                 2.4810                 1.5777
 Frc consts  --      2.3243                 2.2210                 1.4625
 IR Inten    --     47.3344                15.2960                16.9016

                     49                     50                     51
                      A                      A                      A
 Frequencies --   1272.8121              1274.8351              1299.9850
 Red. masses --      2.5013                 1.3287                 2.6864
 Frc consts  --      2.3875                 1.2723                 2.6748
 IR Inten    --     13.4231                21.3808                21.0746

                     52                     53                     54
                      A                      A                      A
 Frequencies --   1322.9799              1408.2145              1426.8076
 Red. masses --      1.8203                 1.5049                 1.9107
 Frc consts  --      1.8771                 1.7584                 2.2918
 IR Inten    --      8.8933                43.7656                24.2479

                     55                     56                     57
                      A                      A                      A
 Frequencies --   1435.9295              1441.3676              1468.3810
 Red. masses --      2.9287                 1.5509                 2.0793
 Frc consts  --      3.5578                 1.8984                 2.6415
 IR Inten    --     39.6125                44.0618                39.9983

                     58                     59                     60
                      A                      A                      A
 Frequencies --   1488.1200              1516.2929              1551.1208
 Red. masses --      2.9963                 2.7873                 7.3931
 Frc consts  --      3.9095                 3.7757                10.4802
 IR Inten    --    334.9765               477.2176                15.5357

                     61                     62                     63
                      A                      A                      A
 Frequencies --   1588.7581              1615.5102              1625.5255
 Red. masses --      5.9097                 6.0384                 5.7087
 Frc consts  --      8.7888                 9.2853                 8.8874
 IR Inten    --     31.8147                19.6308                 9.7516

                     64                     65                     66
                      A                      A                      A
 Frequencies --   1651.3262              1676.3781              1774.9424
 Red. masses --      7.1570                 5.4261                12.4384
 Frc consts  --     11.4987                 8.9843                23.0878
 IR Inten    --    254.7047                44.6156               584.0924

                     67                     68                     69
                      A                      A                      A
 Frequencies --   3030.2315              3154.2099              3156.8326
 Red. masses --      1.0858                 1.0832                 1.0885
 Frc consts  --      5.8745                 6.3492                 6.3910
 IR Inten    --     68.2791                 6.3862                17.7784

                     70                     71                     72
                      A                      A                      A
 Frequencies --   3159.6768              3171.3154              3181.9742
 Red. masses --      1.0856                 1.0875                 1.0909
 Frc consts  --      6.3859                 6.4441                 6.5076
 IR Inten    --      2.0706                 6.9464                 7.9166

                     73                     74                     75
                      A                      A                      A
 Frequencies --   3187.5388              3191.6064              3205.6330
 Red. masses --      1.0937                 1.0888                 1.0962
 Frc consts  --      6.5474                 6.5345                 6.6370
 IR Inten    --     11.1840                 7.7865                12.3111

 - Thermochemistry -
 -------------------
 Temperature   298.150 Kelvin.  Pressure   1.00000 Atm.
 Atom     1 has atomic number  8 and mass  15.99491

 Molecular mass:   235.07456 amu.
 Principal axes and moments of inertia in atomic units:
                           1         2         3
     Eigenvalues --  2450.202714996.190546023.50570
           X            0.99992   0.00908  -0.00923
           Y           -0.00878   0.99947   0.03148
           Z            0.00951  -0.03139   0.99946
 This molecule is an asymmetric top.
 Rotational symmetry number  1.
 Warning -- assumption of classical behavior for rotation
           may cause significant error
 Rotational temperatures (Kelvin)      0.03535     0.01734     0.01438
 Rotational constants (GHZ):           0.73657     0.36122     0.29962
 Zero-point vibrational energy     527090.2 (Joules/Mol)
                                  125.97758 (Kcal/Mol)
 Warning -- explicit consideration of  20 degrees of freedom as
           vibrations may cause significant error
 Vibrational temperatures:     65.03    83.93   132.16   152.71   175.66
          (Kelvin)            268.86   333.61   355.05   379.37   439.94
                              489.92   530.34   558.40   590.05   603.66
                              709.34   750.33   769.42   838.65   873.53
                              910.27   949.39   993.68  1029.42  1060.47
                             1105.62  1131.40  1173.76  1219.67  1230.94
                             1265.62  1295.10  1352.68  1389.50  1412.74
                             1434.22  1450.60  1460.70  1468.63  1496.23
                             1534.02  1553.24  1582.60  1620.62  1719.17
                             1737.18  1773.49  1804.69  1831.29  1834.20
                             1870.39  1903.47  2026.11  2052.86  2065.98
                             2073.81  2112.67  2141.07  2181.61  2231.72
                             2285.87  2324.36  2338.77  2375.89  2411.93
                             2553.75  4359.83  4538.20  4541.98  4546.07
                             4562.82  4578.15  4586.16  4592.01  4612.19

 Zero-point correction=                           0.200758 (Hartree/Particle)
 Thermal correction to Energy=                    0.214127
 Thermal correction to Enthalpy=                  0.215072
 Thermal correction to Gibbs Free Energy=         0.160135
 Sum of electronic and zero-point Energies=           -778.139827
 Sum of electronic and thermal Energies=              -778.126458
 Sum of electronic and thermal Enthalpies=            -778.125513
 Sum of electronic and thermal Free Energies=         -778.180450

                     E (Thermal)             CV                S
                      KCal/Mol        Cal/Mol-Kelvin    Cal/Mol-Kelvin
 Total                  134.367             52.768            115.624
 Electronic               0.000              0.000              0.000
 Translational            0.889              2.981             42.266
 Rotational               0.889              2.981             32.667
 Vibrational            132.589             46.806             40.691
 Vibration     1          0.595              1.979              5.017
 Vibration     2          0.596              1.974              4.513
 Vibration     3          0.602              1.955              3.620
 Vibration     4          0.605              1.944              3.338
 Vibration     5          0.610              1.931              3.067
 Vibration     6          0.632              1.858              2.259
 Vibration     7          0.653              1.792              1.864
 Vibration     8          0.661              1.768              1.754
 Vibration     9          0.670              1.739              1.637
 Vibration    10          0.696              1.663              1.385
 Vibration    11          0.720              1.595              1.210
 Vibration    12          0.741              1.537              1.086
 Vibration    13          0.756              1.496              1.007
 Vibration    14          0.774              1.448              0.926
 Vibration    15          0.782              1.428              0.893
 Vibration    16          0.849              1.266              0.676
 Vibration    17          0.876              1.202              0.606
 Vibration    18          0.890              1.173              0.577
 Vibration    19          0.940              1.068              0.480
 Vibration    20          0.966              1.017              0.438

 Optimization completed.
    -- Stationary point found.
 Normal termination of Gaussian 16 at Tue May 16 23:40:41 2023.
