 Gaussian 16, Revision A.03,
 Gaussian 16:  ES64L-G16RevA.03 25-Dec-2016

 -----------------------------
 # opt freq b3lyp/6-31g(2df,p)
 -----------------------------

 -------------------
 Title Card Required
 -------------------
 Symbolic Z-matrix:
 Charge =  0 Multiplicity = 1

 SCF Done:  E(RB3LYP) =  -799.737790965     A.U. after   29 cycles
 SCF Done:  E(RB3LYP) =  -799.868746647     A.U. after   24 cycles
 SCF Done:  E(RB3LYP) =  -800.009101759     A.U. after   23 cycles
 SCF Done:  E(RB3LYP) =  -799.749359966     A.U. after   22 cycles
 SCF Done:  E(RB3LYP) =  -800.141499532     A.U. after   19 cycles
 SCF Done:  E(RB3LYP) =  -800.218727894     A.U. after   18 cycles
 SCF Done:  E(RB3LYP) =  -800.162582560     A.U. after   26 cycles
 SCF Done:  E(RB3LYP) =  -800.208487706     A.U. after   18 cycles
 SCF Done:  E(RB3LYP) =  -800.234106477     A.U. after   15 cycles
 SCF Done:  E(RB3LYP) =  -800.272959286     A.U. after   17 cycles
 SCF Done:  E(RB3LYP) =  -800.452313199     A.U. after    8 cycles
 SCF Done:  E(RB3LYP) =  -800.452315694     A.U. after    8 cycles
 SCF Done:  E(RB3LYP) =  -800.452316976     A.U. after    8 cycles
 SCF Done:  E(RB3LYP) =  -800.452318507     A.U. after    8 cycles
 SCF Done:  E(RB3LYP) =  -800.452319958     A.U. after    8 cycles
 SCF Done:  E(RB3LYP) =  -800.452321632     A.U. after    8 cycles
 SCF Done:  E(RB3LYP) =  -800.452323566     A.U. after    8 cycles
 SCF Done:  E(RB3LYP) =  -800.452325026     A.U. after    8 cycles
 SCF Done:  E(RB3LYP) =  -800.452325604     A.U. after    7 cycles
 Optimization completed.
    -- Stationary point found.
 Normal termination of Gaussian 16 at Thu May 18 21:32:59 2023.

 ----------------------------------------------------------------------
 #N Geom=AllCheck Guess=TCheck SCRF=Check GenChk RB3LYP/6-31G(2df,p) Fr
 eq
 ----------------------------------------------------------------------

 Structure from the checkpoint file:  "OdC1CNNC2dCCdCCdC3CdC2CdCCdC3O1.chk"
 -------------------
 Title Card Required
 -------------------
 Charge =  0 Multiplicity = 1

                         Standard orientation:
 ---------------------------------------------------------------------
 Center     Atomic      Atomic             Coordinates (Angstroms)
 Number     Number       Type             X           Y           Z
 ---------------------------------------------------------------------
      1          8           0        2.767104    0.614303   -1.533851
      2          6           0        1.842707   -0.074059   -1.216571
      3          6           0        1.979585   -1.581659   -0.930849
      4          7           0        0.870832   -2.370880   -0.432323
      5          7           0        0.515941   -2.111736    0.943870
      6          6           0       -0.534861   -1.120827    1.053553
      7          6           0       -1.832158   -1.553944    0.493055
      8          6           0       -2.796837   -1.023114   -0.308744
      9          6           0       -3.052578    0.239182   -1.028926
     10          6           0       -2.408607    1.426270   -1.013793
     11          6           0       -1.243329    1.562744   -0.141945
     12          6           0       -1.313765    1.081432    1.126368
     13          6           0       -0.214935    0.116024    1.520087
     14          6           0        1.173412    0.445919    1.906454
     15          6           0        1.829220    1.482294    1.331666
     16          6           0        1.003894    2.227885    0.381618
     17          6           0        0.203276    1.564185   -0.494864
     18          8           0        0.541903    0.365517   -1.115566
     19          1           0        2.815177   -1.668866   -0.231394
     20          1           0        2.314833   -2.035257   -1.872306
     21          1           0        0.053634   -2.248371   -1.028591
     22          1           0        0.204972   -3.008514    1.307287
     23          1           0       -2.011239   -2.608037    0.718842
     24          1           0       -3.588819   -1.739199   -0.524390
     25          1           0       -3.908819    0.159934   -1.697449
     26          1           0       -2.739465    2.226280   -1.670260
     27          1           0       -2.280856    0.934984    1.601992
     28          1           0        1.672737   -0.213782    2.609856
     29          1           0        2.825201    1.776813    1.649322
     30          1           0        0.653026    3.209777    0.688935
 ---------------------------------------------------------------------

 SCF Done:  E(RB3LYP) =  -800.452325604     A.U. after    1 cycles

 The electronic state is 1-A.
 Alpha  occ. eigenvalues --  -19.18861 -19.13206 -14.35411 -14.35032 -10.31136
 Alpha  occ. eigenvalues --  -10.24801 -10.22269 -10.22094 -10.20747 -10.20724
 Alpha  occ. eigenvalues --  -10.20616 -10.20526 -10.20522 -10.20256 -10.20160
 Alpha  occ. eigenvalues --  -10.19591 -10.19415 -10.18218  -1.10376  -1.02783
 Alpha  occ. eigenvalues --   -0.97715  -0.87670  -0.82920  -0.82054  -0.78769
 Alpha  occ. eigenvalues --   -0.77291  -0.74879  -0.69318  -0.67577  -0.65795
 Alpha  occ. eigenvalues --   -0.64962  -0.59904  -0.56930  -0.55402  -0.52299
 Alpha  occ. eigenvalues --   -0.51921  -0.50609  -0.49919  -0.49552  -0.49048
 Alpha  occ. eigenvalues --   -0.46753  -0.46109  -0.45562  -0.43364  -0.43113
 Alpha  occ. eigenvalues --   -0.42402  -0.40992  -0.40229  -0.38388  -0.37590
 Alpha  occ. eigenvalues --   -0.37173  -0.35901  -0.35431  -0.33939  -0.33043
 Alpha  occ. eigenvalues --   -0.30929  -0.28491  -0.27167  -0.26134  -0.25149
 Alpha  occ. eigenvalues --   -0.23458  -0.21630  -0.20083
 Alpha virt. eigenvalues --   -0.07464  -0.03969  -0.02628   0.00604   0.02101
 Alpha virt. eigenvalues --    0.04770   0.07895   0.08612   0.09901   0.10717
 Alpha virt. eigenvalues --    0.13042   0.13686   0.14167   0.14468   0.15413

 Mulliken charges:
               1
     1  O   -0.320983
     2  C    0.431130
     3  C   -0.246402
     4  N   -0.290193
     5  N   -0.351730
     6  C    0.237211
     7  C   -0.127023
     8  C   -0.083717
     9  C   -0.046895
    10  C   -0.242980
    11  C    0.203101
    12  C   -0.236267
    13  C    0.039528
    14  C   -0.118015
    15  C   -0.142391
    16  C   -0.183178
    17  C    0.137723
    18  O   -0.249937
    19  H    0.155358
    20  H    0.140474
    21  H    0.224538
    22  H    0.233503
    23  H    0.089471
    24  H    0.095544
    25  H    0.099145
    26  H    0.105561
    27  H    0.118073
    28  H    0.110108
    29  H    0.104434
    30  H    0.114809
 Sum of Mulliken charges =  -0.00000

 Dipole moment (field-independent basis, Debye):
    X=             -2.8793    Y=             -1.4409    Z=              0.8486  Tot=              3.3297
 Quadrupole moment (field-independent basis, Debye-Ang):
   XX=           -101.7467   YY=            -98.4690   ZZ=           -101.3013
   XY=             -0.7804   XZ=              6.5261   YZ=              1.5337

  Exact polarizability: 182.258  12.045 166.815  19.963  -4.478 131.971
 Approx polarizability: 295.374  38.025 312.272  44.317 -21.338 262.468

                      1                      2                      3
                      A                      A                      A
 Frequencies --     70.9416                94.8328               120.4972
 Red. masses --      4.8312                 4.1590                 4.2549
 Frc consts  --      0.0143                 0.0220                 0.0364
 IR Inten    --      1.4539                 0.0727                 0.6080

                      4                      5                      6
                      A                      A                      A
 Frequencies --    156.4410               192.0894               215.0560
 Red. masses --      5.0058                 5.4175                 6.1338
 Frc consts  --      0.0722                 0.1178                 0.1671
 IR Inten    --      0.2921                 2.4563                 1.9685

                      7                      8                      9
                      A                      A                      A
 Frequencies --    232.1395               255.6558               286.3575
 Red. masses --      3.8542                 4.3237                 4.2608
 Frc consts  --      0.1224                 0.1665                 0.2059
 IR Inten    --      3.7505                 1.5671                 0.1012

                     10                     11                     12
                      A                      A                      A
 Frequencies --    315.6269               343.4483               356.0871
 Red. masses --      4.2115                 4.5063                 3.8816
 Frc consts  --      0.2472                 0.3132                 0.2900
 IR Inten    --      1.8432                 0.8439                 5.7283

                     13                     14                     15
                      A                      A                      A
 Frequencies --    387.7204               397.9011               436.1945
 Red. masses --      4.0408                 3.7369                 3.4817
 Frc consts  --      0.3579                 0.3486                 0.3903
 IR Inten    --      2.0982                 1.4189                 1.8418

                     16                     17                     18
                      A                      A                      A
 Frequencies --    458.3941               504.4784               511.1580
 Red. masses --      3.3046                 3.9061                 4.5440
 Frc consts  --      0.4091                 0.5857                 0.6995
 IR Inten    --      2.6638                16.6667                 4.6244

                     19                     20                     21
                      A                      A                      A
 Frequencies --    533.2431               549.4220               554.5520
 Red. masses --      2.8679                 3.5196                 4.4534
 Frc consts  --      0.4805                 0.6260                 0.8069
 IR Inten    --      7.3967                 8.4339                 2.4497

                     22                     23                     24
                      A                      A                      A
 Frequencies --    585.4021               597.0006               641.1456
 Red. masses --      3.5123                 3.2855                 3.1330
 Frc consts  --      0.7092                 0.6899                 0.7588
 IR Inten    --      3.3424                13.9162                13.8457

                     25                     26                     27
                      A                      A                      A
 Frequencies --    673.5332               696.3653               718.8181
 Red. masses --      3.2195                 3.4182                 3.9123
 Frc consts  --      0.8605                 0.9766                 1.1910
 IR Inten    --     14.5031                 9.3108                72.6463

                     28                     29                     30
                      A                      A                      A
 Frequencies --    740.9090               759.3888               768.6895
 Red. masses --      2.6498                 1.9681                 1.8934
 Frc consts  --      0.8570                 0.6687                 0.6592
 IR Inten    --     48.2458                42.9117                38.6218

                     31                     32                     33
                      A                      A                      A
 Frequencies --    795.2967               817.1831               836.8520
 Red. masses --      2.4395                 4.1717                 1.8302
 Frc consts  --      0.9091                 1.6413                 0.7552
 IR Inten    --      7.1261                12.1661                 4.4836

                     34                     35                     36
                      A                      A                      A
 Frequencies --    853.3192               858.1558               877.0532
 Red. masses --      3.7158                 3.2891                 2.3703
 Frc consts  --      1.5941                 1.4271                 1.0743
 IR Inten    --      3.2402                16.6895                19.7952

                     37                     38                     39
                      A                      A                      A
 Frequencies --    888.8670               900.8325               940.3529
 Red. masses --      2.9534                 2.6679                 2.1174
 Frc consts  --      1.3748                 1.2756                 1.1031
 IR Inten    --     71.9485                20.6926                23.3096

                     40                     41                     42
                      A                      A                      A
 Frequencies --    964.5905               970.2859               997.1345
 Red. masses --      1.6111                 2.2832                 1.3093
 Frc consts  --      0.8832                 1.2665                 0.7670
 IR Inten    --     10.2068                22.0661                 2.1571

                     43                     44                     45
                      A                      A                      A
 Frequencies --   1011.6984              1020.3382              1048.2317
 Red. masses --      1.2786                 3.3796                 4.0046
 Frc consts  --      0.7711                 2.0730                 2.5926
 IR Inten    --      1.2068                37.3123                28.0176

                     46                     47                     48
                      A                      A                      A
 Frequencies --   1079.2184              1091.5143              1116.5889
 Red. masses --      2.4790                 2.4652                 3.0814
 Frc consts  --      1.7012                 1.7304                 2.2635
 IR Inten    --     23.0168                48.4160                 5.9374

                     49                     50                     51
                      A                      A                      A
 Frequencies --   1144.1058              1159.2206              1182.1108
 Red. masses --      4.8692                 1.5571                 4.0521
 Frc consts  --      3.7553                 1.2328                 3.3362
 IR Inten    --    203.1124                29.6603               109.6814

                     52                     53                     54
                      A                      A                      A
 Frequencies --   1226.9114              1237.7931              1256.9484
 Red. masses --      1.8097                 1.3764                 2.9720
 Frc consts  --      1.6051                 1.2425                 2.7665
 IR Inten    --      5.6392                 0.7263                 4.2572

                     55                     56                     57
                      A                      A                      A
 Frequencies --   1291.1103              1298.9448              1303.1446
 Red. masses --      1.1616                 1.5696                 1.5620
 Frc consts  --      1.1409                 1.5603                 1.5628
 IR Inten    --      5.1525                 4.4884                21.5494

                     58                     59                     60
                      A                      A                      A
 Frequencies --   1348.2911              1349.1637              1388.0415
 Red. masses --      1.2986                 1.1302                 1.6461
 Frc consts  --      1.3909                 1.2121                 1.8686
 IR Inten    --      7.0915                 1.1388                 3.1489

                     61                     62                     63
                      A                      A                      A
 Frequencies --   1423.0380              1429.5683              1450.3880
 Red. masses --      1.0751                 1.4976                 1.2061
 Frc consts  --      1.2828                 1.8033                 1.4949
 IR Inten    --      5.8466                 2.0038                 2.6767

                     64                     65                     66
                      A                      A                      A
 Frequencies --   1465.1151              1523.5273              1551.5793
 Red. masses --      1.4049                 1.1653                 7.3647
 Frc consts  --      1.7768                 1.5937                10.4461
 IR Inten    --      0.3563                 6.0648                11.7063

                     67                     68                     69
                      A                      A                      A
 Frequencies --   1572.9055              1579.3919              1591.0387
 Red. masses --      7.2987                 8.0798                 6.0472
 Frc consts  --     10.6390                11.8749                 9.0191
 IR Inten    --     30.2970                 4.0120                 1.3975

                     70                     71                     72
                      A                      A                      A
 Frequencies --   1622.0828              1645.5818              1841.3668
 Red. masses --      6.3072                 4.6569                12.9526
 Frc consts  --      9.7776                 7.4299                25.8754
 IR Inten    --      1.8788                 3.4863               225.8589

                     73                     74                     75
                      A                      A                      A
 Frequencies --   3039.9150              3082.8458              3108.7581
 Red. masses --      1.0669                 1.0826                 1.0944
 Frc consts  --      5.8091                 6.0623                 6.2314
 IR Inten    --     15.9062                12.5034                 1.3103

                     76                     77                     78
                      A                      A                      A
 Frequencies --   3121.3013              3140.3636              3145.0884
 Red. masses --      1.0848                 1.0865                 1.0858
 Frc consts  --      6.2267                 6.3129                 6.3281
 IR Inten    --     12.7792                32.5843                 4.5478

                     79                     80                     81
                      A                      A                      A
 Frequencies --   3148.2903              3159.7887              3165.6468
 Red. masses --      1.0879                 1.0840                 1.0929
 Frc consts  --      6.3533                 6.3766                 6.4530
 IR Inten    --      7.9684                 5.7429                35.2733

                     82                     83                     84
                      A                      A                      A
 Frequencies --   3179.7636              3454.3739              3484.3499
 Red. masses --      1.0962                 1.0735                 1.0738
 Frc consts  --      6.5304                 7.5476                 7.6812
 IR Inten    --     25.1382                 6.4000                 0.5975

 - Thermochemistry -
 -------------------
 Temperature   298.150 Kelvin.  Pressure   1.00000 Atm.
 Atom     1 has atomic number  8 and mass  15.99491

 Molecular mass:   240.08988 amu.
 Principal axes and moments of inertia in atomic units:
                           1         2         3
     Eigenvalues --  2692.523453602.399444287.19746
           X            0.99960  -0.00347   0.02807
           Y            0.00294   0.99982   0.01888
           Z           -0.02813  -0.01879   0.99943
 This molecule is an asymmetric top.
 Rotational symmetry number  1.
 Warning -- assumption of classical behavior for rotation
           may cause significant error
 Rotational temperatures (Kelvin)      0.03217     0.02404     0.02020
 Rotational constants (GHZ):           0.67028     0.50098     0.42096
 Zero-point vibrational energy     612086.4 (Joules/Mol)
                                  146.29216 (Kcal/Mol)
 Warning -- explicit consideration of  23 degrees of freedom as
           vibrations may cause significant error
 Vibrational temperatures:    102.07   136.44   173.37   225.08   276.37
          (Kelvin)            309.42   334.00   367.83   412.00   454.12
                              494.15   512.33   557.84   572.49   627.59
                              659.53   725.83   735.44   767.22   790.50
                              797.88   842.26   858.95   922.47   969.06
                             1001.91  1034.22  1066.00  1092.59  1105.97
                             1144.25  1175.74  1204.04  1227.74  1234.69
                             1261.88  1278.88  1296.10  1352.96  1387.83
                             1396.02  1434.65  1455.61  1468.04  1508.17
                             1552.75  1570.45  1606.52  1646.11  1667.86
                             1700.79  1765.25  1780.91  1808.47  1857.62
                             1868.89  1874.93  1939.89  1941.15  1997.08
                             2047.43  2056.83  2086.78  2107.97  2192.02
                             2232.38  2263.06  2272.39  2289.15  2333.82
                             2367.63  2649.32  4373.76  4435.53  4472.81
                             4490.86  4518.28  4525.08  4529.69  4546.23
                             4554.66  4574.97  4970.07  5013.20

 Zero-point correction=                           0.233131 (Hartree/Particle)
 Thermal correction to Energy=                    0.246833
 Thermal correction to Enthalpy=                  0.247777
 Thermal correction to Gibbs Free Energy=         0.194098
 Sum of electronic and zero-point Energies=           -800.219194
 Sum of electronic and thermal Energies=              -800.205493
 Sum of electronic and thermal Enthalpies=            -800.204549
 Sum of electronic and thermal Free Energies=         -800.258228

                     E (Thermal)             CV                S
                      KCal/Mol        Cal/Mol-Kelvin    Cal/Mol-Kelvin
 Total                  154.890             57.698            112.977
 Electronic               0.000              0.000              0.000
 Translational            0.889              2.981             42.329
 Rotational               0.889              2.981             32.097
 Vibrational            153.113             51.736             38.551
 Vibration     1          0.598              1.968              4.127
 Vibration     2          0.603              1.953              3.558
 Vibration     3          0.609              1.932              3.092
 Vibration     4          0.620              1.895              2.592
 Vibration     5          0.634              1.851              2.208
 Vibration     6          0.645              1.818              2.000
 Vibration     7          0.653              1.792              1.862
 Vibration     8          0.666              1.753              1.691
 Vibration     9          0.684              1.699              1.495
 Vibration    10          0.703              1.644              1.333
 Vibration    11          0.722              1.589              1.196
 Vibration    12          0.732              1.563              1.139
 Vibration    13          0.756              1.496              1.009
 Vibration    14          0.764              1.475              0.970
 Vibration    15          0.797              1.391              0.839
 Vibration    16          0.816              1.342              0.771
 Vibration    17          0.860              1.240              0.647
 Vibration    18          0.866              1.225              0.631
 Vibration    19          0.888              1.176              0.580
 Vibration    20          0.905              1.141              0.545
 Vibration    21          0.910              1.130              0.535
 Vibration    22          0.942              1.063              0.475
 Vibration    23          0.955              1.038              0.455

                           ! Non-Optimized Parameters !
 Normal termination of Gaussian 16 at Fri May 19 02:06:25 2023.
