 Gaussian 16, Revision A.03,
 Gaussian 16:  ES64L-G16RevA.03 25-Dec-2016

 -----------------------------
 # opt freq b3lyp/6-31g(2df,p)
 -----------------------------

 -------------------
 Title Card Required
 -------------------
 Symbolic Z-matrix:
 Charge =  0 Multiplicity = 1

 SCF Done:  E(RB3LYP) =  -565.606682552     A.U. after   18 cycles
 SCF Done:  E(RB3LYP) =  -565.644546510     A.U. after   13 cycles
 SCF Done:  E(RB3LYP) =  -565.666755830     A.U. after   14 cycles
 SCF Done:  E(RB3LYP) =  -565.671386246     A.U. after   13 cycles
 SCF Done:  E(RB3LYP) =  -565.673157079     A.U. after   13 cycles
 SCF Done:  E(RB3LYP) =  -565.672983583     A.U. after   13 cycles
 SCF Done:  E(RB3LYP) =  -565.673551536     A.U. after   12 cycles
 SCF Done:  E(RB3LYP) =  -565.673587258     A.U. after   10 cycles
 SCF Done:  E(RB3LYP) =  -565.673593253     A.U. after   10 cycles
 SCF Done:  E(RB3LYP) =  -565.673596555     A.U. after    8 cycles
 SCF Done:  E(RB3LYP) =  -565.673597696     A.U. after    8 cycles
 SCF Done:  E(RB3LYP) =  -565.673597868     A.U. after    8 cycles
 Optimization completed.
    -- Stationary point found.
 Normal termination of Gaussian 16 at Thu May 18 21:32:08 2023.

 ----------------------------------------------------------------------
 #N Geom=AllCheck Guess=TCheck SCRF=Check GenChk RB3LYP/6-31G(2df,p) Fr
 eq
 ----------------------------------------------------------------------

 Structure from the checkpoint file:  "OdC1CdC2NdCCCdNNN2C1.chk"
 -------------------
 Title Card Required
 -------------------
 Charge =  0 Multiplicity = 1

                         Standard orientation:
 ---------------------------------------------------------------------
 Center     Atomic      Atomic             Coordinates (Angstroms)
 Number     Number       Type             X           Y           Z
 ---------------------------------------------------------------------
      1          8           0        3.862552    0.001595    0.133270
      2          6           0        2.657524   -0.074771    0.026411
      3          6           0        1.809038   -1.201784   -0.304495
      4          6           0        0.512620   -0.810296   -0.196154
      5          7           0       -0.694678   -1.383543   -0.460736
      6          6           0       -1.551355   -1.270838    0.482035
      7          6           0       -2.939125   -0.901059    0.152153
      8          6           0       -2.879234    0.638084    0.041311
      9          7           0       -1.947138    1.486908   -0.165010
     10          7           0       -0.618678    1.366238   -0.443152
     11          7           0        0.354452    0.520046    0.277998
     12          6           0        1.694763    1.118501    0.281785
     13          1           0        2.153562   -2.200899   -0.520011
     14          1           0       -1.237986   -1.111687    1.521028
     15          1           0       -3.677890   -1.169659    0.912428
     16          1           0       -3.246858   -1.305878   -0.817841
     17          1           0       -3.860119    1.106986    0.126846
     18          1           0       -0.239684    2.299681   -0.349264
     19          1           0        1.917557    1.609813    1.231944
     20          1           0        1.807915    1.844309   -0.533267
 ---------------------------------------------------------------------

 SCF Done:  E(RB3LYP) =  -565.673597868     A.U. after    1 cycles

 The electronic state is 1-A.
 Alpha  occ. eigenvalues --  -19.10537 -14.41807 -14.39819 -14.38096 -14.35274
 Alpha  occ. eigenvalues --  -10.27073 -10.26559 -10.25722 -10.24626 -10.22863
 Alpha  occ. eigenvalues --  -10.22425 -10.17689  -1.05004  -1.01741  -0.98056
 Alpha  occ. eigenvalues --   -0.93993  -0.83926  -0.79980  -0.74320  -0.72185
 Alpha  occ. eigenvalues --   -0.64406  -0.61804  -0.56805  -0.54820  -0.54768
 Alpha  occ. eigenvalues --   -0.51297  -0.49556  -0.47296  -0.46401  -0.45973
 Alpha  occ. eigenvalues --   -0.43648  -0.42653  -0.41683  -0.41063  -0.39875
 Alpha  occ. eigenvalues --   -0.36151  -0.34404  -0.33163  -0.30125  -0.28350
 Alpha  occ. eigenvalues --   -0.25113  -0.23402  -0.21332
 Alpha virt. eigenvalues --   -0.06721  -0.02298  -0.00454   0.06797   0.07390
 Alpha virt. eigenvalues --    0.09141   0.11295   0.11654   0.12576   0.13569
 Alpha virt. eigenvalues --    0.14848   0.16401   0.16843   0.18556   0.19329

 Mulliken charges:
               1
     1  O   -0.358559
     2  C    0.397028
     3  C   -0.433791
     4  C    0.484319
     5  N   -0.217041
     6  C   -0.001867
     7  C   -0.320335
     8  C    0.026259
     9  N   -0.107332
    10  N   -0.219555
    11  N   -0.136914
    12  C   -0.315733
    13  H    0.118583
    14  H    0.126648
    15  H    0.126046
    16  H    0.153579
    17  H    0.121858
    18  H    0.269697
    19  H    0.145691
    20  H    0.141418
 Sum of Mulliken charges =  -0.00000

 Dipole moment (field-independent basis, Debye):
    X=             -4.9114    Y=              0.2596    Z=              1.3938  Tot=              5.1120
 Quadrupole moment (field-independent basis, Debye-Ang):
   XX=            -78.8387   YY=            -64.3215   ZZ=            -68.7542
   XY=              5.1704   XZ=             -3.1215   YZ=             -1.2382

  Exact polarizability: 173.689   3.281  96.002  -5.253   1.734  62.099
 Approx polarizability: 281.299  10.171 159.307 -14.282   4.840 108.315

                      1                      2                      3
                      A                      A                      A
 Frequencies --     80.3921               131.2804               147.8414
 Red. masses --      5.7939                 3.3606                 3.7180
 Frc consts  --      0.0221                 0.0341                 0.0479
 IR Inten    --      2.2094                 5.1353                 1.2982

                      4                      5                      6
                      A                      A                      A
 Frequencies --    218.1552               270.2635               288.4675
 Red. masses --      4.9033                 3.5496                 3.0715
 Frc consts  --      0.1375                 0.1528                 0.1506
 IR Inten    --      5.0772                 2.7092                11.0256

                      7                      8                      9
                      A                      A                      A
 Frequencies --    332.5876               388.4581               430.3448
 Red. masses --      5.8788                 5.1775                 4.2752
 Frc consts  --      0.3831                 0.4603                 0.4665
 IR Inten    --      3.0661                 5.3568                 8.5197

                     10                     11                     12
                      A                      A                      A
 Frequencies --    452.4567               500.7308               530.5773
 Red. masses --      3.5515                 4.3878                 3.9810
 Frc consts  --      0.4284                 0.6482                 0.6603
 IR Inten    --     21.4417                 4.6866                22.1723

                     13                     14                     15
                      A                      A                      A
 Frequencies --    564.3403               613.7928               638.0308
 Red. masses --      2.9307                 2.3723                 4.8577
 Frc consts  --      0.5499                 0.5266                 1.1651
 IR Inten    --      2.4639                40.3080                 8.1422

                     16                     17                     18
                      A                      A                      A
 Frequencies --    704.4335               724.3758               757.2910
 Red. masses --      3.6517                 4.4545                 3.4163
 Frc consts  --      1.0676                 1.3771                 1.1543
 IR Inten    --     11.1782                13.3098                 3.9667

                     19                     20                     21
                      A                      A                      A
 Frequencies --    807.2514               824.3669               835.0060
 Red. masses --      1.6976                 1.4397                 3.3732
 Frc consts  --      0.6518                 0.5764                 1.3857
 IR Inten    --     54.4213                 8.7839                65.3188

                     22                     23                     24
                      A                      A                      A
 Frequencies --    855.8546               858.3957               945.0839
 Red. masses --      3.0637                 2.3367                 1.8197
 Frc consts  --      1.3222                 1.0145                 0.9576
 IR Inten    --     20.5061                24.7648                11.4711

                     25                     26                     27
                      A                      A                      A
 Frequencies --    971.7712               986.3272              1015.7611
 Red. masses --      2.3777                 2.7225                 4.0249
 Frc consts  --      1.3229                 1.5605                 2.4467
 IR Inten    --      5.4982                57.1745                16.5697

                     28                     29                     30
                      A                      A                      A
 Frequencies --   1061.9469              1095.6853              1130.4061
 Red. masses --      3.0495                 1.9463                 3.2233
 Frc consts  --      2.0262                 1.3767                 2.4267
 IR Inten    --      5.1412                 6.1194                47.7444

                     31                     32                     33
                      A                      A                      A
 Frequencies --   1188.5420              1199.3980              1203.1631
 Red. masses --      2.3104                 1.1806                 1.5417
 Frc consts  --      1.9230                 1.0006                 1.3149
 IR Inten    --     20.1718                 5.3594                 5.3376

                     34                     35                     36
                      A                      A                      A
 Frequencies --   1232.9531              1259.9002              1272.0244
 Red. masses --      2.6445                 1.4404                 2.2293
 Frc consts  --      2.3686                 1.3471                 2.1253
 IR Inten    --      9.4304                48.2699                43.1032

                     37                     38                     39
                      A                      A                      A
 Frequencies --   1331.9146              1395.3756              1415.3341
 Red. masses --      2.1486                 1.2008                 1.2781
 Frc consts  --      2.2457                 1.3776                 1.5084
 IR Inten    --     30.3847                11.5123                 8.4651

                     40                     41                     42
                      A                      A                      A
 Frequencies --   1462.9086              1467.7804              1556.3338
 Red. masses --      1.0889                 1.2014                 1.3129
 Frc consts  --      1.3730                 1.5250                 1.8736
 IR Inten    --      3.9611                 9.3813                43.3900

                     43                     44                     45
                      A                      A                      A
 Frequencies --   1646.6674              1686.3327              1718.7159
 Red. masses --      7.8720                 6.4243                 4.6012
 Frc consts  --     12.5761                10.7637                 8.0081
 IR Inten    --    373.3734               270.4693                 9.4183

                     46                     47                     48
                      A                      A                      A
 Frequencies --   1804.4906              3033.3936              3047.4681
 Red. masses --     12.3478                 1.0633                 1.0868
 Frc consts  --     23.6891                 5.7645                 5.9470
 IR Inten    --    412.3384                12.6950                21.0822

                     49                     50                     51
                      A                      A                      A
 Frequencies --   3050.1880              3106.0003              3106.4691
 Red. masses --      1.0579                 1.1034                 1.0997
 Frc consts  --      5.7987                 6.2720                 6.2526
 IR Inten    --     11.4918                 8.3129                 7.9360

                     52                     53                     54
                      A                      A                      A
 Frequencies --   3117.8493              3259.0919              3564.1230
 Red. masses --      1.0889                 1.0963                 1.0768
 Frc consts  --      6.2364                 6.8608                 8.0588
 IR Inten    --     21.2198                 0.1461                21.7754

 - Thermochemistry -
 -------------------
 Temperature   298.150 Kelvin.  Pressure   1.00000 Atm.
 Atom     1 has atomic number  8 and mass  15.99491

 Molecular mass:   164.06981 amu.
 Principal axes and moments of inertia in atomic units:
                           1         2         3
     Eigenvalues --   724.468692752.575833340.34923
           X            0.99992   0.01177  -0.00377
           Y           -0.01178   0.99993  -0.00135
           Z            0.00375   0.00139   0.99999
 This molecule is an asymmetric top.
 Rotational symmetry number  1.
 Warning -- assumption of classical behavior for rotation
           may cause significant error
 Rotational temperatures (Kelvin)      0.11956     0.03147     0.02593
 Rotational constants (GHZ):           2.49112     0.65566     0.54029
 Zero-point vibrational energy     402472.2 (Joules/Mol)
                                   96.19316 (Kcal/Mol)
 Warning -- explicit consideration of  14 degrees of freedom as
           vibrations may cause significant error
 Vibrational temperatures:    115.67   188.88   212.71   313.88   388.85
          (Kelvin)            415.04   478.52   558.90   619.17   650.98
                              720.44   763.38   811.96   883.11   917.98
                             1013.52  1042.22  1089.57  1161.45  1186.08
                             1201.39  1231.38  1235.04  1359.76  1398.16
                             1419.10  1461.45  1527.90  1576.45  1626.40
                             1710.05  1725.67  1731.08  1773.94  1812.72
                             1830.16  1916.33  2007.63  2036.35  2104.80
                             2111.81  2239.22  2369.19  2426.26  2472.85
                             2596.26  4364.38  4384.63  4388.54  4468.84
                             4469.52  4485.89  4689.11  5127.98

 Zero-point correction=                           0.153294 (Hartree/Particle)
 Thermal correction to Energy=                    0.162818
 Thermal correction to Enthalpy=                  0.163762
 Thermal correction to Gibbs Free Energy=         0.118544
 Sum of electronic and zero-point Energies=           -565.520304
 Sum of electronic and thermal Energies=              -565.510780
 Sum of electronic and thermal Enthalpies=            -565.509836
 Sum of electronic and thermal Free Energies=         -565.555054

                     E (Thermal)             CV                S
                      KCal/Mol        Cal/Mol-Kelvin    Cal/Mol-Kelvin
 Total                  102.170             37.949             95.169
 Electronic               0.000              0.000              0.000
 Translational            0.889              2.981             41.194
 Rotational               0.889              2.981             30.278
 Vibrational            100.392             31.987             23.697
 Vibration     1          0.600              1.962              3.881
 Vibration     2          0.612              1.922              2.927
 Vibration     3          0.617              1.905              2.700
 Vibration     4          0.646              1.813              1.974
 Vibration     5          0.674              1.728              1.595
 Vibration     6          0.685              1.695              1.483
 Vibration     7          0.715              1.610              1.247
 Vibration     8          0.757              1.495              1.006
 Vibration     9          0.792              1.404              0.858
 Vibration    10          0.811              1.355              0.788
 Vibration    11          0.856              1.248              0.656
 Vibration    12          0.886              1.182              0.586
 Vibration    13          0.920              1.108              0.515
 Vibration    14          0.973              1.003              0.427

 Optimization completed.
    -- Stationary point found.
 Normal termination of Gaussian 16 at Thu May 18 22:20:02 2023.
