 Gaussian 16, Revision A.03,
 Gaussian 16:  ES64L-G16RevA.03 25-Dec-2016

 -----------------------------
 # opt freq b3lyp/6-31g(2df,p)
 -----------------------------

 -------------------
 Title Card Required
 -------------------
 Symbolic Z-matrix:
 Charge =  0 Multiplicity = 1

 SCF Done:  E(RB3LYP) =  -1141.66999448     A.U. after   28 cycles
 SCF Done:  E(RB3LYP) =  -1141.73047148     A.U. after   19 cycles
 SCF Done:  E(RB3LYP) =  -1141.78190895     A.U. after   18 cycles
 SCF Done:  E(RB3LYP) =  -1141.82588568     A.U. after   17 cycles
 SCF Done:  E(RB3LYP) =  -1141.89841491     A.U. after   16 cycles
 SCF Done:  E(RB3LYP) =  -1141.92378617     A.U. after   14 cycles
 SCF Done:  E(RB3LYP) =  -1141.94422263     A.U. after   14 cycles
 SCF Done:  E(RB3LYP) =  -1141.95011333     A.U. after   13 cycles
 SCF Done:  E(RB3LYP) =  -1141.95187586     A.U. after   13 cycles
 SCF Done:  E(RB3LYP) =  -1141.95290099     A.U. after   12 cycles
 SCF Done:  E(RB3LYP) =  -1141.95826440     A.U. after   10 cycles
 SCF Done:  E(RB3LYP) =  -1141.95839111     A.U. after   11 cycles
 SCF Done:  E(RB3LYP) =  -1141.95851993     A.U. after   11 cycles
 SCF Done:  E(RB3LYP) =  -1141.95866061     A.U. after   11 cycles
 SCF Done:  E(RB3LYP) =  -1141.95873389     A.U. after   11 cycles
 SCF Done:  E(RB3LYP) =  -1141.95877202     A.U. after   11 cycles
 SCF Done:  E(RB3LYP) =  -1141.95878794     A.U. after   11 cycles
 SCF Done:  E(RB3LYP) =  -1141.95879506     A.U. after   10 cycles
 SCF Done:  E(RB3LYP) =  -1141.95879839     A.U. after    9 cycles
 Optimization completed.
    -- Stationary point found.
 Normal termination of Gaussian 16 at Tue May 16 07:19:49 2023.

 ----------------------------------------------------------------------
 #N Geom=AllCheck Guess=TCheck SCRF=Check GenChk RB3LYP/6-31G(2df,p) Fr
 eq
 ----------------------------------------------------------------------

 Structure from the checkpoint file:  "OdC1CdCCdC2CdC[SH]dS12.chk"
 -------------------
 Title Card Required
 -------------------
 Charge =  0 Multiplicity = 1

                         Standard orientation:
 ---------------------------------------------------------------------
 Center     Atomic      Atomic             Coordinates (Angstroms)
 Number     Number       Type             X           Y           Z
 ---------------------------------------------------------------------
      1          8           0       -2.463938   -2.121361   -0.000573
      2          6           0       -2.065383   -0.981785   -0.000082
      3          6           0       -2.854258    0.224503   -0.000028
      4          6           0       -2.356518    1.493039    0.000185
      5          6           0       -0.986884    1.857153    0.000038
      6          6           0        0.057129    0.966992    0.000095
      7          6           0        1.421865    1.457257   -0.000221
      8          6           0        2.609897    0.821195   -0.000417
      9         16           0        2.937193   -0.904260   -0.000227
     10         16           0       -0.234800   -0.754612    0.000579
     11          1           0       -3.926209    0.053870   -0.000284
     12          1           0       -3.073946    2.309286    0.000269
     13          1           0       -0.744908    2.915245   -0.000694
     14          1           0        1.482718    2.543145   -0.000132
     15          1           0        3.503412    1.433665   -0.000692
     16          1           0        4.277055   -0.772483    0.003064
 ---------------------------------------------------------------------

 SCF Done:  E(RB3LYP) =  -1141.95879839     A.U. after    1 cycles

 The electronic state is 1-A.
 Alpha  occ. eigenvalues --  -88.90659 -88.90037 -19.12407 -10.28686 -10.24819
 Alpha  occ. eigenvalues --  -10.24246 -10.21871 -10.21375 -10.20530 -10.20192
 Alpha  occ. eigenvalues --   -7.97127  -7.96407  -5.93554  -5.93195  -5.92797
 Alpha  occ. eigenvalues --   -5.92736  -5.92397  -5.92160  -1.03984  -0.87191
 Alpha  occ. eigenvalues --   -0.82899  -0.78527  -0.75291  -0.72546  -0.64650
 Alpha  occ. eigenvalues --   -0.60848  -0.55692  -0.51582  -0.50504  -0.47821
 Alpha  occ. eigenvalues --   -0.46566  -0.43836  -0.41615  -0.41576  -0.40338
 Alpha  occ. eigenvalues --   -0.38478  -0.37624  -0.35318  -0.33848  -0.33323
 Alpha  occ. eigenvalues --   -0.29423  -0.25621  -0.25252  -0.21420
 Alpha virt. eigenvalues --   -0.08144  -0.01633  -0.00852   0.04038   0.05074
 Alpha virt. eigenvalues --    0.05440   0.08073   0.09424   0.11079   0.11738
 Alpha virt. eigenvalues --    0.15749   0.17283   0.18753   0.19111   0.21924

 Mulliken charges:
               1
     1  O   -0.336379
     2  C    0.281240
     3  C   -0.199176
     4  C   -0.035539
     5  C   -0.170773
     6  C    0.163041
     7  C   -0.119049
     8  C   -0.125372
     9  S   -0.142231
    10  S   -0.053185
    11  H    0.121525
    12  H    0.112794
    13  H    0.101955
    14  H    0.109543
    15  H    0.138349
    16  H    0.153256
 Sum of Mulliken charges =  -0.00000

 Dipole moment (field-independent basis, Debye):
    X=              2.6462    Y=              4.5278    Z=              0.0024  Tot=              5.2443
 Quadrupole moment (field-independent basis, Debye-Ang):
   XX=            -58.5542   YY=            -72.2459   ZZ=            -74.9578
   XY=             -6.5560   XZ=              0.0114   YZ=             -0.0056

  Exact polarizability: 203.376  -8.422 128.133   0.007  -0.000  53.006
 Approx polarizability: 366.336  -8.321 251.962   0.022   0.014  91.617

                      1                      2                      3
                      A                      A                      A
 Frequencies --     42.9598                94.5519               111.0644
 Red. masses --      7.0543                 8.3049                11.9431
 Frc consts  --      0.0077                 0.0437                 0.0868
 IR Inten    --      0.5524                 0.0228                 0.1969

                      4                      5                      6
                      A                      A                      A
 Frequencies --    171.6536               226.9830               245.5517
 Red. masses --      3.7282                11.3321                 1.1682
 Frc consts  --      0.0647                 0.3440                 0.0415
 IR Inten    --      5.2957                 0.6523                15.2487

                      7                      8                      9
                      A                      A                      A
 Frequencies --    353.5939               356.0929               392.2872
 Red. masses --      9.3292                 3.3236                12.7919
 Frc consts  --      0.6872                 0.2483                 1.1598
 IR Inten    --      0.6495                 0.0257                 2.6006

                     10                     11                     12
                      A                      A                      A
 Frequencies --    465.1556               470.9262               572.6108
 Red. masses --      3.1841                 7.6276                 5.5609
 Frc consts  --      0.4059                 0.9966                 1.0743
 IR Inten    --      0.5987                 7.3275                12.4679

                     13                     14                     15
                      A                      A                      A
 Frequencies --    592.9988               623.6404               646.7821
 Red. masses --      2.9488                 9.3212                 6.6876
 Frc consts  --      0.6109                 2.1359                 1.6483
 IR Inten    --     10.1107                12.0168                 6.7621

                     16                     17                     18
                      A                      A                      A
 Frequencies --    657.8382               736.4228               749.0893
 Red. masses --      3.1168                 1.3689                 4.5021
 Frc consts  --      0.7947                 0.4374                 1.4884
 IR Inten    --      0.5304                 3.8408                30.9311

                     19                     20                     21
                      A                      A                      A
 Frequencies --    808.8380               839.3532               889.7579
 Red. masses --      1.5598                 5.0205                 1.4473
 Frc consts  --      0.6012                 2.0840                 0.6751
 IR Inten    --     66.6714                 2.1578                 0.9251

                     22                     23                     24
                      A                      A                      A
 Frequencies --    956.3046              1004.9082              1014.7446
 Red. masses --      1.2622                 1.2931                 1.3032
 Frc consts  --      0.6801                 0.7693                 0.7906
 IR Inten    --      0.4806                30.0237                 0.2237

                     25                     26                     27
                      A                      A                      A
 Frequencies --   1035.1823              1103.7452              1167.4884
 Red. masses --      3.4497                 2.1907                 2.6858
 Frc consts  --      2.1780                 1.5724                 2.1569
 IR Inten    --      2.5576                 7.5873                 8.3229

                     28                     29                     30
                      A                      A                      A
 Frequencies --   1226.9499              1273.1771              1345.2986
 Red. masses --      1.1357                 1.2121                 1.6392
 Frc consts  --      1.0073                 1.1576                 1.7480
 IR Inten    --     15.2186                 7.8142                 6.3122

                     31                     32                     33
                      A                      A                      A
 Frequencies --   1397.3468              1430.6462              1547.4311
 Red. masses --      1.3475                 1.7894                 6.2429
 Frc consts  --      1.5502                 2.1579                 8.8076
 IR Inten    --     41.8428                12.5804               305.7718

                     34                     35                     36
                      A                      A                      A
 Frequencies --   1614.0888              1650.5417              1778.4294
 Red. masses --      5.2874                 6.3516                12.2012
 Frc consts  --      8.1161                10.1949                22.7367
 IR Inten    --     23.7301                53.3879               524.0403

                     37                     38                     39
                      A                      A                      A
 Frequencies --   2671.2775              3148.5057              3161.4588
 Red. masses --      1.0385                 1.0853                 1.0848
 Frc consts  --      4.3662                 6.3387                 6.3879
 IR Inten    --      4.2454                 4.5025                11.1275

                     40                     41                     42
                      A                      A                      A
 Frequencies --   3177.7348              3189.7222              3201.7875
 Red. masses --      1.0886                 1.0938                 1.0918
 Frc consts  --      6.4766                 6.5567                 6.5944
 IR Inten    --      9.8659                 5.4104                 3.5820

 - Thermochemistry -
 -------------------
 Temperature   298.150 Kelvin.  Pressure   1.00000 Atm.
 Atom     1 has atomic number  8 and mass  15.99491

 Molecular mass:   169.98601 amu.
 Principal axes and moments of inertia in atomic units:
                           1         2         3
     Eigenvalues --   943.215912737.811243681.02693
           X            0.99997  -0.00781   0.00001
           Y            0.00781   0.99997  -0.00002
           Z           -0.00001   0.00002   1.00000
 This molecule is an asymmetric top.
 Rotational symmetry number  1.
 Warning -- assumption of classical behavior for rotation
           may cause significant error
 Rotational temperatures (Kelvin)      0.09183     0.03164     0.02353
 Rotational constants (GHZ):           1.91339     0.65919     0.49028
 Zero-point vibrational energy     287970.6 (Joules/Mol)
                                   68.82662 (Kcal/Mol)
 Warning -- explicit consideration of  13 degrees of freedom as
           vibrations may cause significant error
 Vibrational temperatures:     61.81   136.04   159.80   246.97   326.58
          (Kelvin)            353.29   508.74   512.34   564.41   669.26
                              677.56   823.86   853.19   897.28   930.58
                              946.48  1059.55  1077.77  1163.74  1207.64
                             1280.16  1375.91  1445.84  1459.99  1489.40
                             1588.04  1679.76  1765.31  1831.82  1935.58
                             2010.47  2058.38  2226.41  2322.31  2374.76
                             2558.76  3843.37  4530.00  4548.63  4572.05
                             4589.30  4606.66

 Zero-point correction=                           0.109682 (Hartree/Particle)
 Thermal correction to Energy=                    0.119368
 Thermal correction to Enthalpy=                  0.120312
 Thermal correction to Gibbs Free Energy=         0.073515
 Sum of electronic and zero-point Energies=          -1141.849116
 Sum of electronic and thermal Energies=             -1141.839430
 Sum of electronic and thermal Enthalpies=           -1141.838486
 Sum of electronic and thermal Free Energies=        -1141.885283

                     E (Thermal)             CV                S
                      KCal/Mol        Cal/Mol-Kelvin    Cal/Mol-Kelvin
 Total                   74.905             35.615             98.493
 Electronic               0.000              0.000              0.000
 Translational            0.889              2.981             41.299
 Rotational               0.889              2.981             30.631
 Vibrational             73.127             29.654             26.562
 Vibration     1          0.595              1.980              5.118
 Vibration     2          0.603              1.953              3.564
 Vibration     3          0.607              1.940              3.250
 Vibration     4          0.626              1.877              2.417
 Vibration     5          0.651              1.800              1.903
 Vibration     6          0.660              1.770              1.762
 Vibration     7          0.730              1.568              1.150
 Vibration     8          0.732              1.563              1.139
 Vibration     9          0.760              1.487              0.991
 Vibration    10          0.823              1.327              0.751
 Vibration    11          0.828              1.315              0.735
 Vibration    12          0.929              1.090              0.499
 Vibration    13          0.951              1.047              0.462

                           ! Non-Optimized Parameters !
 Normal termination of Gaussian 16 at Tue May 16 07:48:27 2023.
