 Gaussian 16, Revision A.03,
 Gaussian 16:  ES64L-G16RevA.03 25-Dec-2016

 -----------------------------
 # opt freq b3lyp/6-31g(2df,p)
 -----------------------------

 -------------------
 Title Card Required
 -------------------
 Symbolic Z-matrix:
 Charge =  0 Multiplicity = 1

 SCF Done:  E(RB3LYP) =  -778.221815335     A.U. after   33 cycles
 SCF Done:  E(RB3LYP) =  -778.990690690     A.U. after   28 cycles
 SCF Done:  E(RB3LYP) =  -780.004942475     A.U. after   22 cycles
 SCF Done:  E(RB3LYP) =  -774.140675518     A.U. after   28 cycles
 SCF Done:  E(RB3LYP) =  -780.627864346     A.U. after   24 cycles
 SCF Done:  E(RB3LYP) =  -780.639798772     A.U. after   28 cycles
 SCF Done:  E(RB3LYP) =  -780.786620963     A.U. after   25 cycles
 SCF Done:  E(RB3LYP) =  -781.071331474     A.U. after   21 cycles
 SCF Done:  E(RB3LYP) =  -781.239309302     A.U. after   17 cycles
 SCF Done:  E(RB3LYP) =  -781.335770069     A.U. after   21 cycles
 SCF Done:  E(RB3LYP) =  -782.388481989     A.U. after    9 cycles
 SCF Done:  E(RB3LYP) =  -782.388483625     A.U. after    8 cycles
 SCF Done:  E(RB3LYP) =  -782.388484217     A.U. after    7 cycles
 SCF Done:  E(RB3LYP) =  -782.388484702     A.U. after    7 cycles
 SCF Done:  E(RB3LYP) =  -782.388485020     A.U. after    7 cycles
 SCF Done:  E(RB3LYP) =  -782.388485268     A.U. after    7 cycles
 SCF Done:  E(RB3LYP) =  -782.388485497     A.U. after    7 cycles
 SCF Done:  E(RB3LYP) =  -782.388485688     A.U. after    7 cycles
 SCF Done:  E(RB3LYP) =  -782.388485881     A.U. after    7 cycles
 Optimization completed.
    -- Stationary point found.
 Normal termination of Gaussian 16 at Fri May 19 20:39:07 2023.

 ----------------------------------------------------------------------
 #N Geom=AllCheck Guess=TCheck SCRF=Check GenChk RB3LYP/6-31G(2df,p) Fr
 eq
 ----------------------------------------------------------------------

 Structure from the checkpoint file:  "OdC1CdCCdCCdCCdNCdCqOrCqdOrCdC1.chk"
 -------------------
 Title Card Required
 -------------------
 Charge =  0 Multiplicity = 1

                         Standard orientation:
 ---------------------------------------------------------------------
 Center     Atomic      Atomic             Coordinates (Angstroms)
 Number     Number       Type             X           Y           Z
 ---------------------------------------------------------------------
      1          8           0        7.145646   -0.251361    0.489073
      2          6           0        5.059809    1.269667   -0.651999
      3          6           0        6.046527   -0.724737    0.346143
      4          6           0        4.854881    0.030697   -0.169792
      5          6           0        3.589832   -0.690555   -0.172421
      6          6           0        2.330835   -0.195447   -0.069463
      7          6           0        1.126541   -1.014342   -0.164441
      8          6           0        0.038174   -0.198157   -0.036528
      9          6           0       -1.336891   -0.608597   -0.089061
     10          7           0       -2.311132    0.229066    0.044142
     11          6           0       -3.589231   -0.282694   -0.023952
     12          6           0       -6.031926   -0.094373    0.022754
     13          8           0       -7.063376    0.782360    0.164533
     14          6           0       -4.678721    0.495947    0.102676
     15          8           0       -6.263081   -1.263479   -0.154189
     16          6           0        0.520490    1.180770    0.179005
     17          6           0        1.870178    1.182964    0.160015
     18          1           0        5.844029   -1.789423    0.596887
     19          1           0        6.056627    1.695085   -0.604754
     20          1           0        3.681368   -1.774775   -0.241349
     21          1           0        2.516234    2.029635    0.334258
     22          1           0        1.121856   -2.082132   -0.338273
     23          1           0       -0.139628    2.020343    0.341962
     24          1           0       -1.523205   -1.680700   -0.249320
     25          1           0       -3.734025   -1.355036   -0.186125
     26          1           0       -6.724632    1.674899    0.298719
     27          1           0       -4.550591    1.562290    0.264214
     28          1           0        4.273396    1.849343   -1.118159
 ---------------------------------------------------------------------

 SCF Done:  E(RB3LYP) =  -782.388485881     A.U. after    1 cycles

 The electronic state is 1-A.
 Alpha  occ. eigenvalues --  -19.17735 -19.15804 -19.11148 -14.34239 -10.30281
 Alpha  occ. eigenvalues --  -10.29064 -10.24851 -10.23657 -10.23183 -10.23099
 Alpha  occ. eigenvalues --  -10.22763 -10.22363 -10.21049 -10.20938 -10.20133
 Alpha  occ. eigenvalues --  -10.19898 -10.19722  -1.08835  -1.06497  -1.00589
 Alpha  occ. eigenvalues --   -0.94866  -0.89054  -0.84351  -0.79364  -0.76289
 Alpha  occ. eigenvalues --   -0.74008  -0.69734  -0.67358  -0.63181  -0.60955
 Alpha  occ. eigenvalues --   -0.58670  -0.56443  -0.55796  -0.54637  -0.53466
 Alpha  occ. eigenvalues --   -0.51027  -0.50032  -0.49147  -0.45704  -0.44676
 Alpha  occ. eigenvalues --   -0.44218  -0.43596  -0.42989  -0.42162  -0.41875
 Alpha  occ. eigenvalues --   -0.40920  -0.40477  -0.40131  -0.38260  -0.37827
 Alpha  occ. eigenvalues --   -0.37430  -0.36638  -0.32954  -0.30922  -0.28217
 Alpha  occ. eigenvalues --   -0.27899  -0.27532  -0.26294  -0.25104  -0.22959
 Alpha virt. eigenvalues --   -0.11884  -0.07739  -0.05199   0.00879   0.04061
 Alpha virt. eigenvalues --    0.06463   0.08652   0.09671   0.09739   0.10268
 Alpha virt. eigenvalues --    0.10589   0.10886   0.11579   0.13232   0.14689

 Mulliken charges:
               1
     1  O   -0.253824
     2  C   -0.352551
     3  C    0.117050
     4  C    0.201916
     5  C   -0.259954
     6  C    0.305075
     7  C   -0.274601
     8  C    0.237271
     9  C   -0.034834
    10  N   -0.251551
    11  C    0.121743
    12  C    0.470891
    13  O   -0.385539
    14  C   -0.357541
    15  O   -0.336897
    16  C   -0.185175
    17  C   -0.229057
    18  H    0.083255
    19  H    0.158294
    20  H    0.110341
    21  H    0.112527
    22  H    0.115644
    23  H    0.127274
    24  H    0.093122
    25  H    0.122888
    26  H    0.299992
    27  H    0.098265
    28  H    0.145976
 Sum of Mulliken charges =   0.00000

 Dipole moment (field-independent basis, Debye):
    X=              3.7427    Y=              1.7077    Z=             -0.4479  Tot=              4.1382
 Quadrupole moment (field-independent basis, Debye-Ang):
   XX=           -145.6413   YY=            -86.2751   ZZ=            -97.8602
   XY=            -19.1229   XZ=             -7.5090   YZ=              0.1550

  Exact polarizability: 449.908 -14.960 145.493  -8.813   0.007  71.457
 Approx polarizability: 666.096 -53.621 262.147 -22.837   1.155 120.531

                      1                      2                      3
                      A                      A                      A
 Frequencies --     22.1983                34.2599                43.0573
 Red. masses --      8.3493                 7.5391                 5.4802
 Frc consts  --      0.0024                 0.0052                 0.0060
 IR Inten    --      0.2673                 1.7862                 6.6598

                      4                      5                      6
                      A                      A                      A
 Frequencies --     56.1437                77.1637               110.4932
 Red. masses --      6.2893                 6.3602                 3.9548
 Frc consts  --      0.0117                 0.0223                 0.0284
 IR Inten    --      1.8263                 1.1099                 3.0123

                      7                      8                      9
                      A                      A                      A
 Frequencies --    119.5616               142.6659               163.1672
 Red. masses --      4.9534                 2.8339                 5.2767
 Frc consts  --      0.0417                 0.0340                 0.0828
 IR Inten    --      2.8850                 7.3700                 7.6334

                     10                     11                     12
                      A                      A                      A
 Frequencies --    193.2640               206.7354               255.3070
 Red. masses --      3.4777                 5.0794                 4.4069
 Frc consts  --      0.0765                 0.1279                 0.1692
 IR Inten    --      0.9878                 2.6509                 3.0019

                     13                     14                     15
                      A                      A                      A
 Frequencies --    290.9431               304.4788               327.7370
 Red. masses --      3.5769                 3.6705                 4.5023
 Frc consts  --      0.1784                 0.2005                 0.2849
 IR Inten    --     23.9708                 1.0818                13.0136

                     16                     17                     18
                      A                      A                      A
 Frequencies --    356.6492               370.7715               391.0477
 Red. masses --      3.7663                 3.4851                 6.1739
 Frc consts  --      0.2823                 0.2823                 0.5562
 IR Inten    --      6.5942                 4.6744                 1.5917

                     19                     20                     21
                      A                      A                      A
 Frequencies --    478.8926               493.8117               528.9212
 Red. masses --      1.1753                 2.7199                 4.5403
 Frc consts  --      0.1588                 0.3908                 0.7484
 IR Inten    --     69.7816                16.1708                 0.8675

                     22                     23                     24
                      A                      A                      A
 Frequencies --    550.4172               617.6508               657.6979
 Red. masses --      5.4565                 2.1615                 2.1041
 Frc consts  --      0.9740                 0.4858                 0.5363
 IR Inten    --      2.5232                15.5939                35.3300

                     25                     26                     27
                      A                      A                      A
 Frequencies --    683.5076               694.0135               702.2337
 Red. masses --      5.6912                 3.7449                 1.7209
 Frc consts  --      1.5665                 1.0627                 0.5000
 IR Inten    --      6.4688                 5.8181                 4.6705

                     28                     29                     30
                      A                      A                      A
 Frequencies --    745.5530               752.3306               761.5378
 Red. masses --      4.0138                 1.9537                 2.4490
 Frc consts  --      1.3145                 0.6515                 0.8368
 IR Inten    --      0.7752                 4.4581                 7.4867

                     31                     32                     33
                      A                      A                      A
 Frequencies --    766.7766               852.2061               880.7605
 Red. masses --      3.2054                 1.5358                 1.7675
 Frc consts  --      1.1104                 0.6572                 0.8078
 IR Inten    --     14.6462                16.3341                38.2305

                     34                     35                     36
                      A                      A                      A
 Frequencies --    921.2028               929.2749               929.9222
 Red. masses --      3.9593                 2.4811                 3.8640
 Frc consts  --      1.9796                 1.2624                 1.9687
 IR Inten    --     48.6700               115.0449                 6.1174

                     37                     38                     39
                      A                      A                      A
 Frequencies --    940.1023               946.5548               967.6905
 Red. masses --      1.8906                 1.3106                 3.9762
 Frc consts  --      0.9845                 0.6918                 2.1938
 IR Inten    --     25.7327                 0.8442                 6.7459

                     40                     41                     42
                      A                      A                      A
 Frequencies --    989.7893               997.9801              1005.8818
 Red. masses --      1.3942                 1.9109                 1.3430
 Frc consts  --      0.8048                 1.1213                 0.8006
 IR Inten    --      0.2674                15.2135                28.9145

                     43                     44                     45
                      A                      A                      A
 Frequencies --   1042.2758              1043.0376              1103.3389
 Red. masses --      1.4487                 1.8436                 1.1365
 Frc consts  --      0.9273                 1.1817                 0.8151
 IR Inten    --     11.4702                 1.3842                 7.5350

                     46                     47                     48
                      A                      A                      A
 Frequencies --   1120.6958              1162.4232              1191.1525
 Red. masses --      2.3132                 1.6273                 2.3322
 Frc consts  --      1.7117                 1.2955                 1.9496
 IR Inten    --    290.2386                 2.9575                28.1799

                     49                     50                     51
                      A                      A                      A
 Frequencies --   1217.4888              1260.7673              1280.3494
 Red. masses --      2.3674                 2.2394                 1.2900
 Frc consts  --      2.0675                 2.0973                 1.2459
 IR Inten    --     12.9176                 5.7840               162.2656

                     52                     53                     54
                      A                      A                      A
 Frequencies --   1297.0958              1326.9790              1333.7225
 Red. masses --      2.0549                 2.1041                 1.4564
 Frc consts  --      2.0370                 2.1829                 1.5264
 IR Inten    --      7.8674               765.6527                25.4189

                     55                     56                     57
                      A                      A                      A
 Frequencies --   1382.6453              1390.2719              1418.5285
 Red. masses --      1.6300                 3.8415                 1.4977
 Frc consts  --      1.8360                 4.3747                 1.7756
 IR Inten    --     68.1805                 0.4492                30.3682

                     58                     59                     60
                      A                      A                      A
 Frequencies --   1427.7184              1437.0688              1549.7279
 Red. masses --      1.3925                 1.2380                 6.2287
 Frc consts  --      1.6723                 1.5064                 8.8138
 IR Inten    --     26.8004                 3.6078               179.2776

                     61                     62                     63
                      A                      A                      A
 Frequencies --   1605.3462              1608.8951              1642.9771
 Red. masses --      6.0567                 7.0677                 5.8151
 Frc consts  --      9.1966                10.7792                 9.2485
 IR Inten    --    657.1089                47.2436                68.2673

                     64                     65                     66
                      A                      A                      A
 Frequencies --   1669.6200              1699.8231              1816.5134
 Red. masses --      6.7590                 6.0370                 9.8305
 Frc consts  --     11.1011                10.2772                19.1118
 IR Inten    --      6.8532                48.6021               215.9021

                     67                     68                     69
                      A                      A                      A
 Frequencies --   1832.5272              2888.9747              3011.9108
 Red. masses --      9.5929                 1.0833                 1.0852
 Frc consts  --     18.9802                 5.3271                 5.8004
 IR Inten    --    257.5612               102.3902                45.4878

                     70                     71                     72
                      A                      A                      A
 Frequencies --   3088.7264              3126.6750              3164.9442
 Red. masses --      1.0878                 1.0862                 1.0586
 Frc consts  --      6.1143                 6.2564                 6.2473
 IR Inten    --     21.6718                 7.5524                 4.9331

                     73                     74                     75
                      A                      A                      A
 Frequencies --   3171.1190              3223.9564              3239.0462
 Red. masses --      1.0902                 1.0949                 1.0873
 Frc consts  --      6.4593                 6.7050                 6.7211
 IR Inten    --      6.0828                 2.0983                 0.3817

                     76                     77                     78
                      A                      A                      A
 Frequencies --   3258.5672              3265.4195              3809.4415
 Red. masses --      1.1060                 1.1140                 1.0656
 Frc consts  --      6.9194                 6.9987                 9.1106
 IR Inten    --      1.4497                 0.6246                42.5193

 - Thermochemistry -
 -------------------
 Temperature   298.150 Kelvin.  Pressure   1.00000 Atm.
 Atom     1 has atomic number  8 and mass  15.99491

 Molecular mass:   229.07389 amu.
 Principal axes and moments of inertia in atomic units:
                           1         2         3
     Eigenvalues --   624.62579********************
           X            1.00000  -0.00154  -0.00161
           Y            0.00153   1.00000  -0.00049
           Z            0.00161   0.00049   1.00000
 This molecule is an asymmetric top.
 Rotational symmetry number  1.
 Warning -- assumption of classical behavior for rotation
           may cause significant error
 Rotational temperatures (Kelvin)      0.13867     0.00515     0.00500
 Rotational constants (GHZ):           2.88932     0.10728     0.10411
 Zero-point vibrational energy     552496.0 (Joules/Mol)
                                  132.04972 (Kcal/Mol)
 Warning -- explicit consideration of  23 degrees of freedom as
           vibrations may cause significant error
 Vibrational temperatures:     31.94    49.29    61.95    80.78   111.02
          (Kelvin)            158.98   172.02   205.26   234.76   278.06
                              297.45   367.33   418.60   438.08   471.54
                              513.14   533.46   562.63   689.02   710.48
                              761.00   791.93   888.66   946.28   983.41
                              998.53  1010.36  1072.68  1082.44  1095.68
                             1103.22  1226.13  1267.22  1325.41  1337.02
                             1337.95  1352.60  1361.88  1392.29  1424.09
                             1435.87  1447.24  1499.60  1500.70  1587.46
                             1612.43  1672.47  1713.80  1751.69  1813.96
                             1842.14  1866.23  1909.23  1918.93  1989.32
                             2000.29  2040.95  2054.17  2067.62  2229.71
                             2309.74  2314.84  2363.88  2402.21  2445.67
                             2613.56  2636.60  4156.59  4333.47  4443.99
                             4498.59  4553.65  4562.53  4638.55  4660.27
                             4688.35  4698.21  5480.94

 Zero-point correction=                           0.210435 (Hartree/Particle)
 Thermal correction to Energy=                    0.226660
 Thermal correction to Enthalpy=                  0.227605
 Thermal correction to Gibbs Free Energy=         0.164133
 Sum of electronic and zero-point Energies=           -782.178051
 Sum of electronic and thermal Energies=              -782.161825
 Sum of electronic and thermal Enthalpies=            -782.160881
 Sum of electronic and thermal Free Energies=         -782.224352

                     E (Thermal)             CV                S
                      KCal/Mol        Cal/Mol-Kelvin    Cal/Mol-Kelvin
 Total                  142.232             59.092            133.586
 Electronic               0.000              0.000              0.000
 Translational            0.889              2.981             42.189
 Rotational               0.889              2.981             33.565
 Vibrational            140.454             53.130             57.832
 Vibration     1          0.593              1.985              6.427
 Vibration     2          0.594              1.983              5.566
 Vibration     3          0.595              1.980              5.113
 Vibration     4          0.596              1.975              4.588
 Vibration     5          0.599              1.964              3.962
 Vibration     6          0.606              1.941              3.260
 Vibration     7          0.609              1.933              3.107
 Vibration     8          0.616              1.911              2.768
 Vibration     9          0.623              1.888              2.513
 Vibration    10          0.635              1.849              2.196
 Vibration    11          0.641              1.830              2.072
 Vibration    12          0.666              1.754              1.694
 Vibration    13          0.687              1.691              1.468
 Vibration    14          0.695              1.665              1.392
 Vibration    15          0.711              1.620              1.271
 Vibration    16          0.732              1.562              1.137
 Vibration    17          0.743              1.532              1.077
 Vibration    18          0.759              1.489              0.996
 Vibration    19          0.835              1.297              0.713
 Vibration    20          0.849              1.264              0.674
 Vibration    21          0.884              1.186              0.590
 Vibration    22          0.906              1.139              0.543
 Vibration    23          0.977              0.995              0.420

                           ! Non-Optimized Parameters !
 Normal termination of Gaussian 16 at Fri May 19 22:34:23 2023.
