 Gaussian 16, Revision A.03,
 Gaussian 16:  ES64L-G16RevA.03 25-Dec-2016

 -----------------------------
 # opt freq b3lyp/6-31g(2df,p)
 -----------------------------

 -------------------
 Title Card Required
 -------------------
 Symbolic Z-matrix:
 Charge =  0 Multiplicity = 1

 SCF Done:  E(RB3LYP) =  -951.334629908     A.U. after   18 cycles
 SCF Done:  E(RB3LYP) =  -951.370210613     A.U. after   15 cycles
 SCF Done:  E(RB3LYP) =  -951.388727317     A.U. after   15 cycles
 SCF Done:  E(RB3LYP) =  -951.390119818     A.U. after   14 cycles
 SCF Done:  E(RB3LYP) =  -951.396279182     A.U. after   14 cycles
 SCF Done:  E(RB3LYP) =  -951.402034186     A.U. after   15 cycles
 SCF Done:  E(RB3LYP) =  -951.409964115     A.U. after   16 cycles
 SCF Done:  E(RB3LYP) =  -951.410412166     A.U. after   10 cycles
 SCF Done:  E(RB3LYP) =  -951.419239508     A.U. after   15 cycles
 SCF Done:  E(RB3LYP) =  -951.439283956     A.U. after   15 cycles
 SCF Done:  E(RB3LYP) =  -951.447891150     A.U. after   12 cycles
 SCF Done:  E(RB3LYP) =  -951.448409751     A.U. after   13 cycles
 SCF Done:  E(RB3LYP) =  -951.448774707     A.U. after   13 cycles
 SCF Done:  E(RB3LYP) =  -951.449029474     A.U. after   12 cycles
 SCF Done:  E(RB3LYP) =  -951.449131456     A.U. after   12 cycles
 SCF Done:  E(RB3LYP) =  -951.449147494     A.U. after   10 cycles
 SCF Done:  E(RB3LYP) =  -951.449152169     A.U. after    9 cycles
 SCF Done:  E(RB3LYP) =  -951.449153276     A.U. after    9 cycles
 SCF Done:  E(RB3LYP) =  -951.449153420     A.U. after    7 cycles
 Optimization completed.
    -- Stationary point found.
 Normal termination of Gaussian 16 at Tue May 16 19:58:47 2023.

 ----------------------------------------------------------------------
 #N Geom=AllCheck Guess=TCheck SCRF=Check GenChk RB3LYP/6-31G(2df,p) Fr
 eq
 ----------------------------------------------------------------------

 Structure from the checkpoint file:  "Odc1c2cccc-2ccccnc1dS.chk"
 -------------------
 Title Card Required
 -------------------
 Charge =  0 Multiplicity = 1

                         Standard orientation:
 ---------------------------------------------------------------------
 Center     Atomic      Atomic             Coordinates (Angstroms)
 Number     Number       Type             X           Y           Z
 ---------------------------------------------------------------------
      1          8           0       -0.055744   -1.945359    1.617239
      2          6           0       -0.018991   -1.079460    0.770395
      3          6           0        1.242201   -0.371281    0.398266
      4          6           0        2.428447   -1.039185    0.327020
      5          6           0        3.462172   -0.163445   -0.214530
      6          6           0        2.915109    1.045394   -0.491718
      7          6           0        1.510124    1.015684   -0.093112
      8          6           0        0.642048    2.060235   -0.107570
      9          6           0       -0.655836    1.780290    0.457033
     10          6           0       -1.924664    1.962959    0.052718
     11          6           0       -2.825111    0.884455    0.518023
     12          7           0       -2.421936   -0.328944    0.524735
     13          6           0       -1.287183   -0.813463   -0.071044
     14         16           0       -1.265150   -1.317924   -1.633568
     15          1           0        2.563770   -2.080445    0.586197
     16          1           0        4.495736   -0.450442   -0.353724
     17          1           0        3.417450    1.924617   -0.870514
     18          1           0        0.898370    3.001276   -0.584904
     19          1           0       -0.567477    1.073445    1.274065
     20          1           0       -2.260626    2.699591   -0.670334
     21          1           0       -3.835231    1.091111    0.872362
 ---------------------------------------------------------------------

 SCF Done:  E(RB3LYP) =  -951.449153420     A.U. after    1 cycles

 The electronic state is 1-A.
 Alpha  occ. eigenvalues --  -88.85090 -19.13696 -14.37552 -10.28756 -10.28607
 Alpha  occ. eigenvalues --  -10.27302 -10.23571 -10.23090 -10.22921 -10.22517
 Alpha  occ. eigenvalues --  -10.20629 -10.20305 -10.20226 -10.20003  -7.91620
 Alpha  occ. eigenvalues --   -5.87971  -5.87798  -5.87189  -1.04938  -0.97692
 Alpha  occ. eigenvalues --   -0.88900  -0.84038  -0.80386  -0.76615  -0.73767
 Alpha  occ. eigenvalues --   -0.68913  -0.66441  -0.62801  -0.60469  -0.57109
 Alpha  occ. eigenvalues --   -0.54607  -0.53588  -0.52044  -0.49842  -0.46992
 Alpha  occ. eigenvalues --   -0.45697  -0.43695  -0.43355  -0.41671  -0.41342
 Alpha  occ. eigenvalues --   -0.39678  -0.38976  -0.37639  -0.37022  -0.35070
 Alpha  occ. eigenvalues --   -0.34125  -0.31582  -0.26598  -0.26068  -0.25376
 Alpha  occ. eigenvalues --   -0.23541  -0.21717
 Alpha virt. eigenvalues --   -0.11130  -0.07407  -0.06184  -0.01683   0.01665
 Alpha virt. eigenvalues --    0.06602   0.08002   0.10618   0.10823   0.11513
 Alpha virt. eigenvalues --    0.12026   0.13293   0.15009   0.15816   0.16228

 Mulliken charges:
               1
     1  O   -0.314801
     2  C    0.205128
     3  C    0.113718
     4  C   -0.162362
     5  C   -0.115659
     6  C   -0.181175
     7  C    0.240047
     8  C   -0.238556
     9  C   -0.043380
    10  C   -0.161042
    11  C   -0.004277
    12  N   -0.134015
    13  C    0.217878
    14  S   -0.329955
    15  H    0.134302
    16  H    0.115532
    17  H    0.113210
    18  H    0.125849
    19  H    0.146221
    20  H    0.133614
    21  H    0.139723
 Sum of Mulliken charges =  -0.00000

 Dipole moment (field-independent basis, Debye):
    X=              1.0219    Y=              5.3556    Z=             -0.1119  Tot=              5.4534
 Quadrupole moment (field-independent basis, Debye-Ang):
   XX=            -74.5825   YY=            -83.0097   ZZ=            -92.4133
   XY=             -7.6792   XZ=             -3.4323   YZ=             -0.0406

  Exact polarizability: 201.294 -21.988 144.659  -6.329  -1.740 101.538
 Approx polarizability: 362.495 -71.510 279.158 -22.826  -6.681 209.673

                      1                      2                      3
                      A                      A                      A
 Frequencies --     71.0614                81.3129               131.8691
 Red. masses --      7.3820                 9.3670                 8.3483
 Frc consts  --      0.0220                 0.0365                 0.0855
 IR Inten    --      2.0680                 1.0721                 2.2567

                      4                      5                      6
                      A                      A                      A
 Frequencies --    151.9574               189.5048               230.8608
 Red. masses --      5.7311                 3.1101                 4.4138
 Frc consts  --      0.0780                 0.0658                 0.1386
 IR Inten    --      2.4080                 0.1425                 0.1096

                      7                      8                      9
                      A                      A                      A
 Frequencies --    248.5971               277.0526               294.7116
 Red. masses --      5.7427                 5.5446                 7.1925
 Frc consts  --      0.2091                 0.2508                 0.3681
 IR Inten    --      4.5936                 0.4401                 4.6162

                     10                     11                     12
                      A                      A                      A
 Frequencies --    362.9533               379.9580               424.1951
 Red. masses --      3.1543                 5.1868                 4.3953
 Frc consts  --      0.2448                 0.4412                 0.4660
 IR Inten    --     13.0750                 1.3156                 2.1206

                     13                     14                     15
                      A                      A                      A
 Frequencies --    447.0688               535.5066               556.6574
 Red. masses --      5.3655                 5.7593                 2.9447
 Frc consts  --      0.6318                 0.9731                 0.5376
 IR Inten    --      7.1797                 6.3208                 2.6670

                     16                     17                     18
                      A                      A                      A
 Frequencies --    575.4600               653.9187               681.7875
 Red. masses --      5.5182                 5.8196                 4.3545
 Frc consts  --      1.0767                 1.4662                 1.1926
 IR Inten    --     13.0089                 8.9985                 7.4327

                     19                     20                     21
                      A                      A                      A
 Frequencies --    706.7575               745.0213               770.2792
 Red. masses --      3.3813                 2.9348                 4.9076
 Frc consts  --      0.9951                 0.9598                 1.7156
 IR Inten    --     10.4487                 9.1515                11.4313

                     22                     23                     24
                      A                      A                      A
 Frequencies --    781.7091               812.3360               832.7604
 Red. masses --      2.2406                 3.8097                 2.3744
 Frc consts  --      0.8067                 1.4812                 0.9701
 IR Inten    --     40.8137                15.1546                42.9079

                     25                     26                     27
                      A                      A                      A
 Frequencies --    889.9602               898.6749               904.3669
 Red. masses --      2.7581                 1.5125                 2.1734
 Frc consts  --      1.2871                 0.7197                 1.0473
 IR Inten    --     16.1047                20.9065                 5.2264

                     28                     29                     30
                      A                      A                      A
 Frequencies --    916.5955               943.4255              1007.8323
 Red. masses --      1.5488                 1.4733                 1.6858
 Frc consts  --      0.7667                 0.7726                 1.0088
 IR Inten    --      9.4231                 1.2621                 5.4356

                     31                     32                     33
                      A                      A                      A
 Frequencies --   1017.0306              1062.9929              1085.3145
 Red. masses --      2.2076                 1.2645                 3.6024
 Frc consts  --      1.3454                 0.8418                 2.5001
 IR Inten    --     27.5509                28.5244                20.2990

                     34                     35                     36
                      A                      A                      A
 Frequencies --   1113.5104              1137.7870              1163.7300
 Red. masses --      1.2971                 2.6183                 3.6341
 Frc consts  --      0.9475                 1.9970                 2.8997
 IR Inten    --      9.9959                 7.3253               118.0802

                     37                     38                     39
                      A                      A                      A
 Frequencies --   1174.1346              1216.8020              1252.6706
 Red. masses --      3.9876                 2.6830                 1.7321
 Frc consts  --      3.2389                 2.3405                 1.6014
 IR Inten    --     47.8437                50.5128                70.6494

                     40                     41                     42
                      A                      A                      A
 Frequencies --   1281.0638              1334.5334              1376.6571
 Red. masses --      1.9211                 2.5209                 1.3301
 Frc consts  --      1.8576                 2.6452                 1.4852
 IR Inten    --      1.2126                 5.6213                35.6223

                     43                     44                     45
                      A                      A                      A
 Frequencies --   1378.2571              1416.1310              1498.6786
 Red. masses --      1.8684                 1.2064                 7.5728
 Frc consts  --      2.0912                 1.4254                10.0212
 IR Inten    --     39.1892                 4.3636                64.7129

                     46                     47                     48
                      A                      A                      A
 Frequencies --   1601.1045              1628.2340              1643.6092
 Red. masses --      5.3119                 8.3785                 7.6886
 Frc consts  --      8.0230                13.0873                12.2375
 IR Inten    --     10.3859                24.4685                25.4529

                     49                     50                     51
                      A                      A                      A
 Frequencies --   1689.2300              1739.2881              3128.3951
 Red. masses --      6.9406                13.1401                 1.0890
 Frc consts  --     11.6688                23.4204                 6.2792
 IR Inten    --     21.3155               211.6698                28.7617

                     52                     53                     54
                      A                      A                      A
 Frequencies --   3170.3816              3180.7969              3185.5016
 Red. masses --      1.0857                 1.0915                 1.0890
 Frc consts  --      6.4298                 6.5062                 6.5108
 IR Inten    --      1.3254                 5.3349                 5.3550

                     55                     56                     57
                      A                      A                      A
 Frequencies --   3218.9859              3234.5403              3244.0722
 Red. masses --      1.0868                 1.0946                 1.1043
 Frc consts  --      6.6348                 6.7474                 6.8473
 IR Inten    --      1.6653                 2.8666                 7.2387

 - Thermochemistry -
 -------------------
 Temperature   298.150 Kelvin.  Pressure   1.00000 Atm.
 Atom     1 has atomic number  8 and mass  15.99491

 Molecular mass:   201.02484 amu.
 Principal axes and moments of inertia in atomic units:
                           1         2         3
     Eigenvalues --  1808.232513146.894923847.14216
           X            0.99967  -0.02353  -0.01026
           Y            0.02332   0.99954  -0.01940
           Z            0.01071   0.01916   0.99976
 This molecule is an asymmetric top.
 Rotational symmetry number  1.
 Warning -- assumption of classical behavior for rotation
           may cause significant error
 Rotational temperatures (Kelvin)      0.04790     0.02752     0.02251
 Rotational constants (GHZ):           0.99807     0.57350     0.46911
 Zero-point vibrational energy     392839.2 (Joules/Mol)
                                   93.89082 (Kcal/Mol)
 Warning -- explicit consideration of  16 degrees of freedom as
           vibrations may cause significant error
 Vibrational temperatures:    102.24   116.99   189.73   218.63   272.66
          (Kelvin)            332.16   357.68   398.62   424.02   522.21
                              546.67   610.32   643.23   770.47   800.91
                              827.96   940.84   980.94  1016.87  1071.92
                             1108.26  1124.71  1168.77  1198.16  1280.45
                             1292.99  1301.18  1318.78  1357.38  1450.05
                             1463.28  1529.41  1561.53  1602.09  1637.02
                             1674.35  1689.32  1750.71  1802.31  1843.17
                             1920.10  1980.70  1983.00  2037.50  2156.26
                             2303.63  2342.67  2364.79  2430.43  2502.45
                             4501.06  4561.47  4576.46  4583.23  4631.40
                             4653.78  4667.50

 Zero-point correction=                           0.149625 (Hartree/Particle)
 Thermal correction to Energy=                    0.160914
 Thermal correction to Enthalpy=                  0.161858
 Thermal correction to Gibbs Free Energy=         0.112166
 Sum of electronic and zero-point Energies=           -951.299529
 Sum of electronic and thermal Energies=              -951.288239
 Sum of electronic and thermal Enthalpies=            -951.287295
 Sum of electronic and thermal Free Energies=         -951.336987

                     E (Thermal)             CV                S
                      KCal/Mol        Cal/Mol-Kelvin    Cal/Mol-Kelvin
 Total                  100.975             43.721            104.585
 Electronic               0.000              0.000              0.000
 Translational            0.889              2.981             41.799
 Rotational               0.889              2.981             31.460
 Vibrational             99.198             37.760             31.326
 Vibration     1          0.598              1.968              4.124
 Vibration     2          0.600              1.962              3.859
 Vibration     3          0.612              1.921              2.919
 Vibration     4          0.619              1.901              2.648
 Vibration     5          0.633              1.854              2.233
 Vibration     6          0.653              1.794              1.872
 Vibration     7          0.662              1.765              1.741
 Vibration     8          0.678              1.716              1.552
 Vibration     9          0.689              1.684              1.447
 Vibration    10          0.737              1.549              1.109
 Vibration    11          0.750              1.513              1.039
 Vibration    12          0.786              1.418              0.878
 Vibration    13          0.806              1.367              0.805
 Vibration    14          0.891              1.171              0.575
 Vibration    15          0.912              1.125              0.531
 Vibration    16          0.932              1.084              0.494

 Optimization completed.
    -- Stationary point found.
 Normal termination of Gaussian 16 at Tue May 16 21:25:43 2023.
