 Gaussian 16, Revision A.03,
 Gaussian 16:  ES64L-G16RevA.03 25-Dec-2016

 -----------------------------
 # opt freq b3lyp/6-31g(2df,p)
 -----------------------------

 -------------------
 Title Card Required
 -------------------
 Symbolic Z-matrix:
 Charge =  0 Multiplicity = 1

 SCF Done:  E(RB3LYP) =  -951.637436209     A.U. after   25 cycles
 SCF Done:  E(RB3LYP) =  -951.802938539     A.U. after   19 cycles
 SCF Done:  E(RB3LYP) =  -951.929210929     A.U. after   25 cycles
 SCF Done:  E(RB3LYP) =  -952.068754459     A.U. after   22 cycles
 SCF Done:  E(RB3LYP) =  -952.045253239     A.U. after   19 cycles
 SCF Done:  E(RB3LYP) =  -952.141870932     A.U. after   21 cycles
 SCF Done:  E(RB3LYP) =  -952.243816155     A.U. after   17 cycles
 SCF Done:  E(RB3LYP) =  -952.298980947     A.U. after   17 cycles
 SCF Done:  E(RB3LYP) =  -952.339455948     A.U. after   17 cycles
 SCF Done:  E(RB3LYP) =  -952.356800467     A.U. after   16 cycles
 SCF Done:  E(RB3LYP) =  -952.568732126     A.U. after   11 cycles
 SCF Done:  E(RB3LYP) =  -952.568746743     A.U. after   11 cycles
 SCF Done:  E(RB3LYP) =  -952.568754407     A.U. after    9 cycles
 SCF Done:  E(RB3LYP) =  -952.568758086     A.U. after    8 cycles
 SCF Done:  E(RB3LYP) =  -952.568760432     A.U. after    9 cycles
 SCF Done:  E(RB3LYP) =  -952.568761945     A.U. after    9 cycles
 SCF Done:  E(RB3LYP) =  -952.568762656     A.U. after    9 cycles
 SCF Done:  E(RB3LYP) =  -952.568762948     A.U. after    8 cycles
 SCF Done:  E(RB3LYP) =  -952.568763049     A.U. after    7 cycles
 Optimization completed.
    -- Stationary point found.

 The electronic state is 1-A.
 Alpha  occ. eigenvalues --  -88.91107 -19.23659 -14.32737 -10.32827 -10.23042
 Alpha  occ. eigenvalues --  -10.22938 -10.22405 -10.22340 -10.21677 -10.21303
 Alpha  occ. eigenvalues --  -10.20930 -10.20717 -10.20111 -10.20095  -7.97493
 Alpha  occ. eigenvalues --   -5.93901  -5.93372  -5.93332  -1.14237  -0.96264
 Alpha  occ. eigenvalues --   -0.84816  -0.82352  -0.81460  -0.78080  -0.72917
 Alpha  occ. eigenvalues --   -0.69449  -0.64351  -0.59846  -0.57931  -0.57152
 Alpha  occ. eigenvalues --   -0.55579  -0.52358  -0.51916  -0.50433  -0.48811
 Alpha  occ. eigenvalues --   -0.47555  -0.46977  -0.46457  -0.43543  -0.42512
 Alpha  occ. eigenvalues --   -0.41138  -0.39526  -0.37588  -0.36434  -0.36137
 Alpha  occ. eigenvalues --   -0.33927  -0.32883  -0.30951  -0.30246  -0.26713
 Alpha  occ. eigenvalues --   -0.26291  -0.21832  -0.20162
 Alpha virt. eigenvalues --   -0.08301  -0.05764  -0.05544  -0.01424   0.03172
 Alpha virt. eigenvalues --    0.04573   0.07418   0.08088   0.08834   0.10034
 Alpha virt. eigenvalues --    0.10138   0.11137   0.11737   0.13021   0.14098

 Mulliken charges:
               1
     1  O   -0.198447
     2  C    0.479253
     3  C   -0.397716
     4  C   -0.068014
     5  C   -0.090038
     6  C   -0.061394
     7  C   -0.095708
     8  C   -0.228819
     9  C    0.272616
    10  C   -0.079553
    11  N   -0.206262
    12  C   -0.100149
    13  C   -0.066781
    14  S   -0.085869
    15  H    0.151840
    16  H    0.103140
    17  H    0.084674
    18  H    0.088013
    19  H    0.089698
    20  H    0.103303
    21  H    0.120564
    22  H    0.091217
    23  H    0.094432
 Sum of Mulliken charges =  -0.00000

 Dipole moment (field-independent basis, Debye):
    X=              4.9957    Y=              0.2334    Z=              1.9869  Tot=              5.3814
 Quadrupole moment (field-independent basis, Debye-Ang):
   XX=           -104.1775   YY=            -82.9538   ZZ=            -90.7632
   XY=            -12.5577   XZ=            -10.7084   YZ=              4.5829

 Normal termination of Gaussian 16 at Wed May 17 20:17:00 2023.

 ----------------------------------------------------------------------
 #N Geom=AllCheck Guess=TCheck SCRF=Check GenChk RB3LYP/6-31G(2df,p) Fr
 eq
 ----------------------------------------------------------------------

 Structure from the checkpoint file:  "OdC1CdCCdCCdCC2dCNdCC12S.chk"
 -------------------
 Title Card Required
 -------------------
 Charge =  0 Multiplicity = 1

                         Standard orientation:
 ---------------------------------------------------------------------
 Center     Atomic      Atomic             Coordinates (Angstroms)
 Number     Number       Type             X           Y           Z
 ---------------------------------------------------------------------
      1          8           0        7.243732    0.986849    0.034963
      2          6           0        6.273093    0.357890   -0.054941
      3          6           0        5.172887   -0.370448   -0.160108
      4          6           0        3.843111    0.152256    0.039156
      5          6           0        2.707603   -0.577491   -0.063754
      6          6           0        1.396323   -0.036571    0.137678
      7          6           0        0.240720   -0.738961    0.039368
      8          6           0       -1.058587   -0.164519    0.244129
      9          6           0       -2.222501   -0.831386    0.167431
     10          6           0       -2.749755   -2.144167   -0.153795
     11          7           0       -4.015784   -1.902852   -0.003949
     12          6           0       -3.718267   -0.461899    0.370042
     13          6           0       -4.073864    0.549647   -0.638354
     14         16           0       -4.175159    2.120328   -0.139943
     15          1           0        5.329267   -1.414761   -0.413073
     16          1           0        3.764692    1.207843    0.288367
     17          1           0        2.777757   -1.634792   -0.313707
     18          1           0        1.337185    1.022938    0.386627
     19          1           0        0.288068   -1.797526   -0.208440
     20          1           0       -1.096182    0.896855    0.485948
     21          1           0       -2.303039   -3.091105   -0.450029
     22          1           0       -4.009887   -0.256557    1.411403
     23          1           0       -3.989260    2.160935    1.238818
 ---------------------------------------------------------------------

 SCF Done:  E(RB3LYP) =  -952.568763049     A.U. after    1 cycles
