 Gaussian 16, Revision A.03,
 Gaussian 16:  ES64L-G16RevA.03 25-Dec-2016

 -----------------------------
 # opt freq b3lyp/6-31g(2df,p)
 -----------------------------

 -------------------
 Title Card Required
 -------------------
 Symbolic Z-matrix:
 Charge =  0 Multiplicity = 1

 SCF Done:  E(RB3LYP) =  -968.608658708     A.U. after   16 cycles
 SCF Done:  E(RB3LYP) =  -968.645358568     A.U. after   15 cycles
 SCF Done:  E(RB3LYP) =  -968.675669912     A.U. after   15 cycles
 SCF Done:  E(RB3LYP) =  -968.681014303     A.U. after   14 cycles
 SCF Done:  E(RB3LYP) =  -968.682702861     A.U. after   13 cycles
 SCF Done:  E(RB3LYP) =  -968.683569669     A.U. after   13 cycles
 SCF Done:  E(RB3LYP) =  -968.683867824     A.U. after   13 cycles
 SCF Done:  E(RB3LYP) =  -968.684100378     A.U. after   12 cycles
 SCF Done:  E(RB3LYP) =  -968.684172257     A.U. after   12 cycles
 SCF Done:  E(RB3LYP) =  -968.684212131     A.U. after   12 cycles
 SCF Done:  E(RB3LYP) =  -968.684537719     A.U. after   12 cycles
 SCF Done:  E(RB3LYP) =  -968.684567048     A.U. after   12 cycles
 SCF Done:  E(RB3LYP) =  -968.684573377     A.U. after   10 cycles
 SCF Done:  E(RB3LYP) =  -968.684575363     A.U. after    9 cycles
 SCF Done:  E(RB3LYP) =  -968.684576135     A.U. after    8 cycles
 SCF Done:  E(RB3LYP) =  -968.684576976     A.U. after    9 cycles
 SCF Done:  E(RB3LYP) =  -968.684577419     A.U. after    8 cycles
 SCF Done:  E(RB3LYP) =  -968.684577544     A.U. after    8 cycles
 SCF Done:  E(RB3LYP) =  -968.684577559     A.U. after    7 cycles
 Optimization completed.
    -- Stationary point found.
 Normal termination of Gaussian 16 at Fri May 19 00:10:27 2023.

 ----------------------------------------------------------------------
 #N Geom=AllCheck Guess=TCheck SCRF=Check GenChk RB3LYP/6-31G(2df,p) Fr
 eq
 ----------------------------------------------------------------------

 Structure from the checkpoint file:  "OdC1CC12CdCCdNN2c1cccs1.chk"
 -------------------
 Title Card Required
 -------------------
 Charge =  0 Multiplicity = 1

                         Standard orientation:
 ---------------------------------------------------------------------
 Center     Atomic      Atomic             Coordinates (Angstroms)
 Number     Number       Type             X           Y           Z
 ---------------------------------------------------------------------
      1          8           0       -1.146819    2.121489   -1.767885
      2          6           0       -1.171945    1.718829   -0.644315
      3          6           0       -0.912649    1.998777    0.780652
      4          6           0       -1.345822    0.571120    0.313438
      5          6           0       -2.719327    0.104816    0.647002
      6          6           0       -3.055832   -1.150473    0.330288
      7          6           0       -2.037464   -2.018232   -0.238171
      8          7           0       -0.778257   -1.745627   -0.203627
      9          7           0       -0.404565   -0.551488    0.365280
     10          6           0        0.977618   -0.330540    0.374646
     11          6           0        1.733807    0.186811    1.394290
     12          6           0        3.108541    0.322283    1.049095
     13          6           0        3.382386   -0.106310   -0.217662
     14         16           0        1.965747   -0.663211   -1.031686
     15          1           0       -1.639125    2.542822    1.381769
     16          1           0        0.124727    2.155799    1.067632
     17          1           0       -3.416578    0.808784    1.088443
     18          1           0       -4.048077   -1.544442    0.517882
     19          1           0       -2.296008   -2.984968   -0.657043
     20          1           0        1.319031    0.427319    2.364318
     21          1           0        3.861694    0.696070    1.730801
     22          1           0        4.340803   -0.164602   -0.710903
 ---------------------------------------------------------------------

 SCF Done:  E(RB3LYP) =  -968.684577559     A.U. after    1 cycles

 The electronic state is 1-A.
 Alpha  occ. eigenvalues --  -88.90289 -19.16029 -14.39945 -14.36939 -10.28669
 Alpha  occ. eigenvalues --  -10.25882 -10.24308 -10.22290 -10.21633 -10.21226
 Alpha  occ. eigenvalues --  -10.20837 -10.20564 -10.19044 -10.18994  -7.96444
 Alpha  occ. eigenvalues --   -5.92829  -5.92481  -5.92226  -1.06327  -1.03051
 Alpha  occ. eigenvalues --   -0.89471  -0.88125  -0.83803  -0.78796  -0.73383
 Alpha  occ. eigenvalues --   -0.71858  -0.65516  -0.64283  -0.58997  -0.58340
 Alpha  occ. eigenvalues --   -0.55530  -0.52397  -0.52317  -0.49542  -0.48041
 Alpha  occ. eigenvalues --   -0.45708  -0.45514  -0.44109  -0.42840  -0.41936
 Alpha  occ. eigenvalues --   -0.40178  -0.39538  -0.38759  -0.37782  -0.37358
 Alpha  occ. eigenvalues --   -0.34776  -0.34248  -0.30652  -0.28590  -0.26782
 Alpha  occ. eigenvalues --   -0.24995  -0.23921  -0.19029
 Alpha virt. eigenvalues --   -0.06871  -0.02489  -0.01241   0.03498   0.05808
 Alpha virt. eigenvalues --    0.06302   0.08752   0.10294   0.10800   0.11574
 Alpha virt. eigenvalues --    0.12624   0.14267   0.15645   0.15922   0.16605

 Mulliken charges:
               1
     1  O   -0.278365
     2  C    0.417244
     3  C   -0.461360
     4  C    0.161524
     5  C   -0.146730
     6  C   -0.109560
     7  C   -0.019333
     8  N   -0.171022
     9  N   -0.208471
    10  C    0.285882
    11  C   -0.216248
    12  C   -0.077015
    13  C   -0.164000
    14  S   -0.022794
    15  H    0.144736
    16  H    0.159581
    17  H    0.118012
    18  H    0.114716
    19  H    0.124678
    20  H    0.109817
    21  H    0.108007
    22  H    0.130701
 Sum of Mulliken charges =  -0.00000

 Dipole moment (field-independent basis, Debye):
    X=             -1.1496    Y=              0.3645    Z=              3.0138  Tot=              3.2461
 Quadrupole moment (field-independent basis, Debye-Ang):
   XX=            -70.9448   YY=            -88.5166   ZZ=            -88.7752
   XY=              3.9644   XZ=             -3.4544   YZ=              7.7523

  Exact polarizability: 176.328  13.137 120.058  -2.643  16.091 109.883
 Approx polarizability: 265.747  22.641 202.854  -3.899  33.802 212.477

                      1                      2                      3
                      A                      A                      A
 Frequencies --     26.0464                42.4830                75.1797
 Red. masses --      7.4938                 6.2054                 6.8045
 Frc consts  --      0.0030                 0.0066                 0.0227
 IR Inten    --      0.4591                 2.6057                 3.4050

                      4                      5                      6
                      A                      A                      A
 Frequencies --    101.7564               125.6647               212.2431
 Red. masses --      6.1300                 4.9958                 7.3210
 Frc consts  --      0.0374                 0.0465                 0.1943
 IR Inten    --      3.0194                 1.5611                 1.9291

                      7                      8                      9
                      A                      A                      A
 Frequencies --    271.1706               327.8624               338.8793
 Red. masses --      4.0851                 4.4206                 5.9774
 Frc consts  --      0.1770                 0.2800                 0.4044
 IR Inten    --      0.9957                 6.0711                 4.1916

                     10                     11                     12
                      A                      A                      A
 Frequencies --    356.8718               395.7730               443.8062
 Red. masses --      4.2681                 5.1683                 2.1594
 Frc consts  --      0.3203                 0.4770                 0.2506
 IR Inten    --      1.9233                 1.5209                 5.2261

                     13                     14                     15
                      A                      A                      A
 Frequencies --    476.6677               535.0937               552.6296
 Red. masses --      4.7271                 4.3866                 3.5660
 Frc consts  --      0.6328                 0.7400                 0.6416
 IR Inten    --     10.4670                 2.2025                 4.9613

                     16                     17                     18
                      A                      A                      A
 Frequencies --    599.3386               609.4420               642.5761
 Red. masses --      3.8998                 5.2732                 4.7487
 Frc consts  --      0.8254                 1.1540                 1.1553
 IR Inten    --      2.0888                 8.0669                 9.4715

                     19                     20                     21
                      A                      A                      A
 Frequencies --    667.0882               711.3396               722.7174
 Red. masses --      7.1094                 1.2391                 2.3330
 Frc consts  --      1.8640                 0.3694                 0.7180
 IR Inten    --     11.2714                50.3211                20.6086

                     22                     23                     24
                      A                      A                      A
 Frequencies --    736.5850               768.7987               802.5914
 Red. masses --      3.6657                 5.3175                 3.7786
 Frc consts  --      1.1718                 1.8517                 1.4341
 IR Inten    --      6.5734                 7.4420                16.1727

                     25                     26                     27
                      A                      A                      A
 Frequencies --    845.7021               850.4228               852.7954
 Red. masses --      1.5776                 1.7125                 3.1096
 Frc consts  --      0.6648                 0.7297                 1.3324
 IR Inten    --      1.7861                21.3174                16.3309

                     28                     29                     30
                      A                      A                      A
 Frequencies --    889.0474               898.3182               915.5536
 Red. masses --      1.3349                 2.0806                 1.4106
 Frc consts  --      0.6217                 0.9892                 0.6967
 IR Inten    --      3.5716                24.7140                10.6148

                     31                     32                     33
                      A                      A                      A
 Frequencies --    959.0651               967.2609               971.4307
 Red. masses --      2.5834                 1.7933                 3.3166
 Frc consts  --      1.4000                 0.9885                 1.8440
 IR Inten    --     50.9577                13.5522                75.9283

                     34                     35                     36
                      A                      A                      A
 Frequencies --    999.8662              1058.6956              1067.4982
 Red. masses --      2.8433                 1.6458                 1.6383
 Frc consts  --      1.6748                 1.0868                 1.1000
 IR Inten    --      1.2437                 7.8825                 0.3683

                     37                     38                     39
                      A                      A                      A
 Frequencies --   1069.6889              1109.2231              1155.9557
 Red. masses --      3.3945                 1.1279                 1.4714
 Frc consts  --      2.2884                 0.8177                 1.1584
 IR Inten    --     78.5580                 5.0846                12.9911

                     40                     41                     42
                      A                      A                      A
 Frequencies --   1202.2298              1218.8383              1251.1432
 Red. masses --      4.2021                 2.2539                 1.6859
 Frc consts  --      3.5784                 1.9728                 1.5549
 IR Inten    --      4.2938                34.4654                 7.9927

                     43                     44                     45
                      A                      A                      A
 Frequencies --   1308.5878              1361.0674              1390.1545
 Red. masses --      3.1702                 1.3715                 2.4207
 Frc consts  --      3.1985                 1.4969                 2.7563
 IR Inten    --     20.3154                16.0796                11.8028

                     46                     47                     48
                      A                      A                      A
 Frequencies --   1398.8343              1417.2743              1486.3076
 Red. masses --      1.2050                 1.7079                 6.5535
 Frc consts  --      1.3892                 2.0213                 8.5298
 IR Inten    --     13.0541                 1.3496                45.1585

                     49                     50                     51
                      A                      A                      A
 Frequencies --   1580.3930              1613.8265              1684.4001
 Red. masses --      6.0526                 9.6942                 6.2761
 Frc consts  --      8.9068                14.8757                10.4913
 IR Inten    --     72.5969                 5.6212                 3.4564

                     52                     53                     54
                      A                      A                      A
 Frequencies --   1927.5076              3092.7612              3179.3961
 Red. masses --     12.8538                 1.0532                 1.0852
 Frc consts  --     28.1367                 5.9357                 6.4634
 IR Inten    --    245.0381                 7.6030                 0.5381

                     55                     56                     57
                      A                      A                      A
 Frequencies --   3186.4718              3187.1722              3205.7409
 Red. masses --      1.1055                 1.0990                 1.0990
 Frc consts  --      6.6137                 6.5776                 6.6544
 IR Inten    --      5.8660                 7.1053                12.8188

                     58                     59                     60
                      A                      A                      A
 Frequencies --   3208.6407              3223.1668              3254.8977
 Red. masses --      1.0874                 1.0954                 1.0977
 Frc consts  --      6.5961                 6.7049                 6.8521
 IR Inten    --      9.2568                 2.0190                 0.9173

 - Thermochemistry -
 -------------------
 Temperature   298.150 Kelvin.  Pressure   1.00000 Atm.
 Atom     1 has atomic number  8 and mass  15.99491

 Molecular mass:   204.03573 amu.
 Principal axes and moments of inertia in atomic units:
                           1         2         3
     Eigenvalues --  1684.572083521.682014070.76645
           X            0.99985   0.01713   0.00114
           Y           -0.01716   0.99765   0.06630
           Z            0.00000  -0.06631   0.99780
 This molecule is an asymmetric top.
 Rotational symmetry number  1.
 Warning -- assumption of classical behavior for rotation
           may cause significant error
 Rotational temperatures (Kelvin)      0.05142     0.02459     0.02128
 Rotational constants (GHZ):           1.07134     0.51247     0.44334
 Zero-point vibrational energy     415893.4 (Joules/Mol)
                                   99.40090 (Kcal/Mol)
 Warning -- explicit consideration of  17 degrees of freedom as
           vibrations may cause significant error
 Vibrational temperatures:     37.47    61.12   108.17   146.40   180.80
          (Kelvin)            305.37   390.15   471.72   487.57   513.46
                              569.43   638.54   685.82   769.88   795.11
                              862.31   876.85   924.52   959.79  1023.46
                             1039.83  1059.78  1106.13  1154.75  1216.78
                             1223.57  1226.98  1279.14  1292.48  1317.28
                             1379.88  1391.67  1397.67  1438.58  1523.23
                             1535.89  1539.04  1595.92  1663.16  1729.74
                             1753.64  1800.12  1882.77  1958.27  2000.12
                             2012.61  2039.14  2138.47  2273.83  2321.94
                             2423.48  2773.25  4449.79  4574.44  4584.62
                             4585.63  4612.35  4616.52  4637.42  4683.07

 Zero-point correction=                           0.158405 (Hartree/Particle)
 Thermal correction to Energy=                    0.170309
 Thermal correction to Enthalpy=                  0.171254
 Thermal correction to Gibbs Free Energy=         0.118623
 Sum of electronic and zero-point Energies=           -968.526172
 Sum of electronic and thermal Energies=              -968.514268
 Sum of electronic and thermal Enthalpies=            -968.513324
 Sum of electronic and thermal Free Energies=         -968.565954

                     E (Thermal)             CV                S
                      KCal/Mol        Cal/Mol-Kelvin    Cal/Mol-Kelvin
 Total                  106.871             45.814            110.770
 Electronic               0.000              0.000              0.000
 Translational            0.889              2.981             41.844
 Rotational               0.889              2.981             31.557
 Vibrational            105.093             39.852             37.369
 Vibration     1          0.593              1.985              6.110
 Vibration     2          0.595              1.980              5.140
 Vibration     3          0.599              1.966              4.013
 Vibration     4          0.604              1.948              3.420
 Vibration     5          0.611              1.927              3.011
 Vibration     6          0.643              1.822              2.024
 Vibration     7          0.675              1.726              1.589
 Vibration     8          0.711              1.620              1.271
 Vibration     9          0.719              1.598              1.217
 Vibration    10          0.732              1.561              1.136
 Vibration    11          0.763              1.479              0.978
 Vibration    12          0.803              1.375              0.815
 Vibration    13          0.833              1.302              0.719
 Vibration    14          0.890              1.172              0.576
 Vibration    15          0.908              1.134              0.539
 Vibration    16          0.957              1.033              0.451
 Vibration    17          0.968              1.012              0.434

 Optimization completed.
    -- Stationary point found.
 Normal termination of Gaussian 16 at Fri May 19 01:29:15 2023.
