 Gaussian 16, Revision A.03,
 Gaussian 16:  ES64L-G16RevA.03 25-Dec-2016

 -----------------------------
 # opt freq b3lyp/6-31g(2df,p)
 -----------------------------

 -------------------
 Title Card Required
 -------------------
 Symbolic Z-matrix:
 Charge =  0 Multiplicity = 1

 SCF Done:  E(RB3LYP) =  -1750.08489929     A.U. after   20 cycles
 SCF Done:  E(RB3LYP) =  -1750.15878772     A.U. after   15 cycles
 SCF Done:  E(RB3LYP) =  -1750.24118789     A.U. after   15 cycles
 SCF Done:  E(RB3LYP) =  -1750.29784240     A.U. after   15 cycles
 SCF Done:  E(RB3LYP) =  -1750.32710566     A.U. after   15 cycles
 SCF Done:  E(RB3LYP) =  -1750.37595533     A.U. after   15 cycles
 SCF Done:  E(RB3LYP) =  -1750.41064655     A.U. after   15 cycles
 SCF Done:  E(RB3LYP) =  -1750.42108736     A.U. after   14 cycles
 SCF Done:  E(RB3LYP) =  -1750.43446864     A.U. after   13 cycles
 SCF Done:  E(RB3LYP) =  -1750.44007448     A.U. after   14 cycles
 SCF Done:  E(RB3LYP) =  -1750.45373612     A.U. after   11 cycles
 SCF Done:  E(RB3LYP) =  -1750.45376258     A.U. after   10 cycles
 SCF Done:  E(RB3LYP) =  -1750.45377110     A.U. after    9 cycles
 SCF Done:  E(RB3LYP) =  -1750.45377898     A.U. after    9 cycles
 SCF Done:  E(RB3LYP) =  -1750.45378374     A.U. after    9 cycles
 SCF Done:  E(RB3LYP) =  -1750.45378661     A.U. after    9 cycles
 SCF Done:  E(RB3LYP) =  -1750.45378832     A.U. after    8 cycles
 SCF Done:  E(RB3LYP) =  -1750.45378848     A.U. after    7 cycles
 SCF Done:  E(RB3LYP) =  -1750.45378851     A.U. after    7 cycles
 Optimization completed.
    -- Stationary point found.
 Normal termination of Gaussian 16 at Thu May 18 00:16:02 2023.

 ----------------------------------------------------------------------
 #N Geom=AllCheck Guess=TCheck SCRF=Check GenChk RB3LYP/6-31G(2df,p) Fr
 eq
 ----------------------------------------------------------------------

 Structure from the checkpoint file:  "OdC1CS[SH]dCCC2CONCdC2CS1.chk"
 -------------------
 Title Card Required
 -------------------
 Charge =  0 Multiplicity = 1

                         Standard orientation:
 ---------------------------------------------------------------------
 Center     Atomic      Atomic             Coordinates (Angstroms)
 Number     Number       Type             X           Y           Z
 ---------------------------------------------------------------------
      1          8           0       -1.886969    1.094882    1.652097
      2          6           0       -1.944378    1.333685    0.467980
      3          6           0       -3.227972    1.208245   -0.330678
      4         16           0       -3.306378   -0.428050   -1.163465
      5         16           0       -2.073894   -1.877427    0.512522
      6          6           0       -0.494562   -1.565467    0.855076
      7          6           0        0.620223   -1.534708   -0.150494
      8          6           0        1.921261   -0.859052    0.347953
      9          6           0        3.082884   -1.390179   -0.504079
     10          8           0        4.320160   -0.790804   -0.136229
     11          7           0        4.323764    0.602001   -0.349167
     12          6           0        3.107809    1.243879   -0.126345
     13          6           0        1.970316    0.661877    0.290863
     14          6           0        0.843370    1.552523    0.734772
     15         16           0       -0.505448    1.773786   -0.517066
     16          1           0       -3.271012    1.963685   -1.119073
     17          1           0       -4.064210    1.340191    0.358243
     18          1           0       -1.933793   -2.650619   -0.583635
     19          1           0       -0.381582   -1.060026    1.806966
     20          1           0        0.274111   -1.049152   -1.072254
     21          1           0        0.869843   -2.570304   -0.433013
     22          1           0        2.091407   -1.193705    1.382099
     23          1           0        3.237125   -2.460256   -0.340841
     24          1           0        2.876543   -1.223079   -1.572791
     25          1           0        4.731792    0.790389   -1.264132
     26          1           0        3.190240    2.321093   -0.247379
     27          1           0        1.223926    2.551300    0.954040
     28          1           0        0.321561    1.196094    1.626844
 ---------------------------------------------------------------------

 SCF Done:  E(RB3LYP) =  -1750.45378851     A.U. after    1 cycles

 The electronic state is 1-A.
 Alpha  occ. eigenvalues --  -88.95797 -88.88210 -88.83883 -19.18506 -19.14383
 Alpha  occ. eigenvalues --  -14.39682 -10.29475 -10.24341 -10.22852 -10.22549
 Alpha  occ. eigenvalues --  -10.22221 -10.21748 -10.21378 -10.21167 -10.19651
 Alpha  occ. eigenvalues --   -8.01642  -7.94608  -7.90397  -5.97940  -5.97769
 Alpha  occ. eigenvalues --   -5.97463  -5.91024  -5.90662  -5.90267  -5.86811
 Alpha  occ. eigenvalues --   -5.86510  -5.85941  -1.09393  -1.05563  -0.87733
 Alpha  occ. eigenvalues --   -0.85996  -0.83428  -0.79758  -0.76927  -0.74551
 Alpha  occ. eigenvalues --   -0.69714  -0.66098  -0.64327  -0.62152  -0.60122
 Alpha  occ. eigenvalues --   -0.55581  -0.53897  -0.52107  -0.51619  -0.48288
 Alpha  occ. eigenvalues --   -0.47611  -0.46937  -0.46498  -0.45140  -0.43979
 Alpha  occ. eigenvalues --   -0.42725  -0.42600  -0.41310  -0.40982  -0.39836
 Alpha  occ. eigenvalues --   -0.38395  -0.37783  -0.37412  -0.35085  -0.34437
 Alpha  occ. eigenvalues --   -0.33943  -0.31936  -0.31523  -0.28299  -0.26430
 Alpha  occ. eigenvalues --   -0.25398  -0.21581  -0.20881  -0.20492
 Alpha virt. eigenvalues --   -0.07469  -0.02699   0.00487   0.00748   0.03426
 Alpha virt. eigenvalues --    0.05036   0.06939   0.07624   0.08086   0.09190
 Alpha virt. eigenvalues --    0.09943   0.10977   0.11386   0.12673   0.13519

 Mulliken charges:
               1
     1  O   -0.316311
     2  C    0.336250
     3  C   -0.263950
     4  S   -0.344701
     5  S    0.054688
     6  C   -0.111512
     7  C   -0.255987
     8  C   -0.130275
     9  C   -0.090058
    10  O   -0.271387
    11  N   -0.188577
    12  C   -0.060470
    13  C    0.232469
    14  C   -0.334785
    15  S   -0.143000
    16  H    0.150013
    17  H    0.146630
    18  H    0.184197
    19  H    0.154618
    20  H    0.158554
    21  H    0.112545
    22  H    0.099198
    23  H    0.120351
    24  H    0.099128
    25  H    0.249947
    26  H    0.114684
    27  H    0.136438
    28  H    0.161302
 Sum of Mulliken charges =  -0.00000

 Dipole moment (field-independent basis, Debye):
    X=              2.5654    Y=             -0.9977    Z=             -0.7882  Tot=              2.8632
 Quadrupole moment (field-independent basis, Debye-Ang):
   XX=           -121.3860   YY=            -99.7507   ZZ=           -113.4165
   XY=              2.2167   XZ=             -8.5043   YZ=             -0.5245

  Exact polarizability: 245.865  -6.622 161.229  12.622  -9.509 131.408
 Approx polarizability: 433.595 -38.452 272.012  66.953 -44.077 290.481

                      1                      2                      3
                      A                      A                      A
 Frequencies --     50.7157                61.3658                73.0279
 Red. masses --      6.5764                 4.9897                 8.3965
 Frc consts  --      0.0100                 0.0111                 0.0264
 IR Inten    --      1.3802                 3.3778                 0.4180

                      4                      5                      6
                      A                      A                      A
 Frequencies --     84.2054               130.3042               138.3460
 Red. masses --      5.3203                 7.7856                 6.9013
 Frc consts  --      0.0222                 0.0779                 0.0778
 IR Inten    --      5.6541                 2.6740                 3.8490

                      7                      8                      9
                      A                      A                      A
 Frequencies --    151.5372               183.6158               195.1502
 Red. masses --      6.7776                 6.1905                 6.0691
 Frc consts  --      0.0917                 0.1230                 0.1362
 IR Inten    --      3.0892                15.6264                 9.1476

                     10                     11                     12
                      A                      A                      A
 Frequencies --    237.7487               243.2778               281.2908
 Red. masses --      3.5120                 8.9493                 4.4685
 Frc consts  --      0.1170                 0.3121                 0.2083
 IR Inten    --      3.4359                47.5026                 3.9166

                     13                     14                     15
                      A                      A                      A
 Frequencies --    295.3683               314.8678               331.5354
 Red. masses --      2.9570                 3.9170                 3.2020
 Frc consts  --      0.1520                 0.2288                 0.2074
 IR Inten    --      6.5958                 2.3883                16.9317

                     16                     17                     18
                      A                      A                      A
 Frequencies --    347.9683               376.1369               396.4450
 Red. masses --      2.2795                 2.8106                 2.7251
 Frc consts  --      0.1626                 0.2343                 0.2523
 IR Inten    --      5.2871                40.5409                 2.5169

                     19                     20                     21
                      A                      A                      A
 Frequencies --    483.4824               508.3296               550.8411
 Red. masses --      8.6911                 6.4489                 3.7658
 Frc consts  --      1.1970                 0.9818                 0.6732
 IR Inten    --      0.7580                 0.5745                47.3611

                     22                     23                     24
                      A                      A                      A
 Frequencies --    564.4400               574.1624               600.7384
 Red. masses --      2.9532                 6.7183                 1.3926
 Frc consts  --      0.5544                 1.3049                 0.2961
 IR Inten    --     14.6979                39.4722                44.1939

                     25                     26                     27
                      A                      A                      A
 Frequencies --    650.7248               688.1863               715.9422
 Red. masses --      3.8438                 3.1066                 3.8017
 Frc consts  --      0.9590                 0.8669                 1.1481
 IR Inten    --     64.8309               214.4042                50.1769

                     28                     29                     30
                      A                      A                      A
 Frequencies --    737.3427               746.4884               759.6558
 Red. masses --      1.8358                 4.5264                 1.6477
 Frc consts  --      0.5881                 1.4861                 0.5602
 IR Inten    --     19.4185                 5.5314                16.1552

                     31                     32                     33
                      A                      A                      A
 Frequencies --    800.4575               859.0631               880.7650
 Red. masses --      3.0948                 1.5804                 1.9422
 Frc consts  --      1.1683                 0.6872                 0.8877
 IR Inten    --     24.4599                 4.7300                 8.7548

                     34                     35                     36
                      A                      A                      A
 Frequencies --    898.3972               906.9778               915.2298
 Red. masses --      1.6852                 1.8179                 1.9069
 Frc consts  --      0.8014                 0.8811                 0.9411
 IR Inten    --     20.2269                 2.9594                 8.4203

                     37                     38                     39
                      A                      A                      A
 Frequencies --    952.8969              1018.7416              1020.9927
 Red. masses --      2.7151                 2.5195                 1.9824
 Frc consts  --      1.4525                 1.5406                 1.2175
 IR Inten    --      9.4792                81.2443                34.3237

                     40                     41                     42
                      A                      A                      A
 Frequencies --   1041.5512              1064.6623              1089.4918
 Red. masses --      2.2612                 2.8458                 2.3602
 Frc consts  --      1.4453                 1.9005                 1.6506
 IR Inten    --     17.4281                14.3659                 6.1691

                     43                     44                     45
                      A                      A                      A
 Frequencies --   1097.5053              1132.1689              1162.0427
 Red. masses --      2.9941                 2.2635                 1.3857
 Frc consts  --      2.1249                 1.7095                 1.1025
 IR Inten    --      9.6407                 2.6120                14.4013

                     46                     47                     48
                      A                      A                      A
 Frequencies --   1182.1017              1200.3711              1215.0858
 Red. masses --      1.4236                 1.5947                 1.6307
 Frc consts  --      1.1721                 1.3538                 1.4186
 IR Inten    --     74.6690                 8.6704                12.3501

                     49                     50                     51
                      A                      A                      A
 Frequencies --   1219.0106              1236.8648              1262.4115
 Red. masses --      1.3513                 1.6232                 1.3024
 Frc consts  --      1.1831                 1.4631                 1.2229
 IR Inten    --     14.5750                29.4481                15.6270

                     52                     53                     54
                      A                      A                      A
 Frequencies --   1265.3717              1294.5252              1331.3433
 Red. masses --      1.2828                 1.1968                 1.3163
 Frc consts  --      1.2102                 1.1816                 1.3747
 IR Inten    --      3.4711                 2.9301                 4.9912

                     55                     56                     57
                      A                      A                      A
 Frequencies --   1342.7147              1380.6153              1387.5140
 Red. masses --      1.2602                 1.4653                 1.6029
 Frc consts  --      1.3386                 1.6456                 1.8182
 IR Inten    --      2.3472                 9.8726                21.9380

                     58                     59                     60
                      A                      A                      A
 Frequencies --   1402.6178              1443.4037              1456.4255
 Red. masses --      1.5844                 1.2248                 1.0994
 Frc consts  --      1.8366                 1.5035                 1.3740
 IR Inten    --      0.8883                 6.7677                 1.8730

                     61                     62                     63
                      A                      A                      A
 Frequencies --   1461.4313              1480.3865              1485.8185
 Red. masses --      1.0752                 1.1008                 1.0977
 Frc consts  --      1.3531                 1.4214                 1.4278
 IR Inten    --      6.9890                14.5982                 3.4428

                     64                     65                     66
                      A                      A                      A
 Frequencies --   1703.7630              1751.5398              2640.4000
 Red. masses --      6.4323                11.5959                 1.0389
 Frc consts  --     11.0010                20.9603                 4.2676
 IR Inten    --     93.0054               180.4348                 0.8424

                     67                     68                     69
                      A                      A                      A
 Frequencies --   2970.0654              2983.2598              2995.5908
 Red. masses --      1.0694                 1.0731                 1.0766
 Frc consts  --      5.5580                 5.6268                 5.6920
 IR Inten    --     21.8706                19.4059                40.2476

                     70                     71                     72
                      A                      A                      A
 Frequencies --   3036.0297              3062.7295              3067.4308
 Red. masses --      1.0887                 1.0553                 1.0586
 Frc consts  --      5.9125                 5.8322                 5.8687
 IR Inten    --      3.9231                 9.5166                11.4278

                     73                     74                     75
                      A                      A                      A
 Frequencies --   3095.9841              3120.7179              3127.6801
 Red. masses --      1.0962                 1.1054                 1.1092
 Frc consts  --      6.1905                 6.3428                 6.3928
 IR Inten    --     21.8933                 3.2083                 7.3938

                     76                     77                     78
                      A                      A                      A
 Frequencies --   3163.4086              3207.1502              3452.2872
 Red. masses --      1.0904                 1.0862                 1.0757
 Frc consts  --      6.4293                 6.5827                 7.5538
 IR Inten    --      7.1151                 7.8697                 2.4654

 - Thermochemistry -
 -------------------
 Temperature   298.150 Kelvin.  Pressure   1.00000 Atm.
 Atom     1 has atomic number  8 and mass  15.99491

 Molecular mass:   263.01084 amu.
 Principal axes and moments of inertia in atomic units:
                           1         2         3
     Eigenvalues --  2237.780776630.204447816.99583
           X            0.99997  -0.00653  -0.00374
           Y            0.00658   0.99990   0.01217
           Z            0.00366  -0.01220   0.99992
 This molecule is an asymmetric top.
 Rotational symmetry number  1.
 Warning -- assumption of classical behavior for rotation
           may cause significant error
 Rotational temperatures (Kelvin)      0.03871     0.01306     0.01108
 Rotational constants (GHZ):           0.80649     0.27220     0.23087
 Zero-point vibrational energy     560691.1 (Joules/Mol)
                                  134.00839 (Kcal/Mol)
 Warning -- explicit consideration of  24 degrees of freedom as
           vibrations may cause significant error
 Vibrational temperatures:     72.97    88.29   105.07   121.15   187.48
          (Kelvin)            199.05   218.03   264.18   280.78   342.07
                              350.02   404.71   424.97   453.02   477.01
                              500.65   541.18   570.40   695.62   731.37
                              792.54   812.10   826.09   864.33   936.25
                              990.15  1030.08  1060.87  1074.03  1092.98
                             1151.68  1236.00  1267.22  1292.59  1304.94
                             1316.81  1371.01  1465.74  1468.98  1498.56
                             1531.81  1567.54  1579.07  1628.94  1671.92
                             1700.78  1727.07  1748.24  1753.88  1779.57
                             1816.33  1820.59  1862.53  1915.51  1931.87
                             1986.40  1996.32  2018.05  2076.74  2095.47
                             2102.67  2129.95  2137.76  2451.33  2520.08
                             3798.95  4273.26  4292.25  4309.99  4368.17
                             4406.58  4413.35  4454.43  4490.02  4500.03
                             4551.44  4614.37  4967.07

 Zero-point correction=                           0.213556 (Hartree/Particle)
 Thermal correction to Energy=                    0.229004
 Thermal correction to Enthalpy=                  0.229948
 Thermal correction to Gibbs Free Energy=         0.170470
 Sum of electronic and zero-point Energies=          -1750.240233
 Sum of electronic and thermal Energies=             -1750.224785
 Sum of electronic and thermal Enthalpies=           -1750.223840
 Sum of electronic and thermal Free Energies=        -1750.283319

                     E (Thermal)             CV                S
                      KCal/Mol        Cal/Mol-Kelvin    Cal/Mol-Kelvin
 Total                  143.702             58.361            125.182
 Electronic               0.000              0.000              0.000
 Translational            0.889              2.981             42.601
 Rotational               0.889              2.981             33.117
 Vibrational            141.925             52.399             49.465
 Vibration     1          0.595              1.977              4.789
 Vibration     2          0.597              1.973              4.413
 Vibration     3          0.599              1.967              4.070
 Vibration     4          0.601              1.960              3.790
 Vibration     5          0.612              1.923              2.942
 Vibration     6          0.614              1.915              2.827
 Vibration     7          0.619              1.901              2.653
 Vibration     8          0.631              1.862              2.291
 Vibration     9          0.636              1.847              2.178
 Vibration    10          0.656              1.783              1.820
 Vibration    11          0.659              1.774              1.779
 Vibration    12          0.681              1.708              1.526
 Vibration    13          0.690              1.682              1.443
 Vibration    14          0.702              1.645              1.337
 Vibration    15          0.714              1.613              1.253
 Vibration    16          0.726              1.579              1.175
 Vibration    17          0.747              1.521              1.055
 Vibration    18          0.763              1.478              0.976
 Vibration    19          0.840              1.287              0.701
 Vibration    20          0.864              1.232              0.638
 Vibration    21          0.906              1.138              0.542
 Vibration    22          0.920              1.108              0.515
 Vibration    23          0.930              1.087              0.496
 Vibration    24          0.959              1.030              0.448

 Optimization completed.
    -- Stationary point found.
 Normal termination of Gaussian 16 at Thu May 18 02:28:11 2023.
