 Gaussian 16, Revision A.03,
 Gaussian 16:  ES64L-G16RevA.03 25-Dec-2016

 -----------------------------
 # opt freq b3lyp/6-31g(2df,p)
 -----------------------------

 -------------------
 Title Card Required
 -------------------
 Symbolic Z-matrix:
 Charge =  0 Multiplicity = 1

 SCF Done:  E(RB3LYP) =  -1387.43797913     A.U. after   21 cycles
 SCF Done:  E(RB3LYP) =  -1387.51186398     A.U. after   15 cycles
 SCF Done:  E(RB3LYP) =  -1387.56617466     A.U. after   15 cycles
 SCF Done:  E(RB3LYP) =  -1387.58979317     A.U. after   14 cycles
 SCF Done:  E(RB3LYP) =  -1387.60300858     A.U. after   14 cycles
 SCF Done:  E(RB3LYP) =  -1387.60890424     A.U. after   14 cycles
 SCF Done:  E(RB3LYP) =  -1387.61163991     A.U. after   14 cycles
 SCF Done:  E(RB3LYP) =  -1387.61284500     A.U. after   14 cycles
 SCF Done:  E(RB3LYP) =  -1387.61352525     A.U. after   14 cycles
 SCF Done:  E(RB3LYP) =  -1387.61376274     A.U. after   13 cycles
 SCF Done:  E(RB3LYP) =  -1387.61388869     A.U. after   11 cycles
 SCF Done:  E(RB3LYP) =  -1387.61393214     A.U. after   11 cycles
 SCF Done:  E(RB3LYP) =  -1387.61395207     A.U. after   10 cycles
 SCF Done:  E(RB3LYP) =  -1387.61396217     A.U. after   10 cycles
 SCF Done:  E(RB3LYP) =  -1387.61396438     A.U. after    9 cycles
 SCF Done:  E(RB3LYP) =  -1387.61396512     A.U. after    8 cycles
 SCF Done:  E(RB3LYP) =  -1387.61396540     A.U. after    8 cycles
 Optimization completed.
    -- Stationary point found.
 Normal termination of Gaussian 16 at Tue May 16 03:53:57 2023.

 ----------------------------------------------------------------------
 #N Geom=AllCheck Guess=TCheck SCRF=Check GenChk RB3LYP/6-31G(2df,p) Fr
 eq
 ----------------------------------------------------------------------

 Structure from the checkpoint file:  "OdC1CdC2C3dCCdC3C3dCSC3dCCdS2N1.chk"
 -------------------
 Title Card Required
 -------------------
 Charge =  0 Multiplicity = 1

                         Standard orientation:
 ---------------------------------------------------------------------
 Center     Atomic      Atomic             Coordinates (Angstroms)
 Number     Number       Type             X           Y           Z
 ---------------------------------------------------------------------
      1          8           0       -4.219918   -0.422532   -1.590822
      2          6           0       -3.217468   -0.333093   -0.911531
      3          6           0       -2.297533    0.828430   -0.857290
      4          6           0       -1.338650    0.783837    0.081210
      5          6           0       -0.268038    1.702717    0.317144
      6          6           0       -0.109929    3.031321    0.442476
      7          6           0        1.413711    2.910515    0.362273
      8          6           0        1.319174    1.570459    0.212530
      9          6           0        2.123366    0.456506   -0.130794
     10          6           0        3.351846    0.344317   -0.729947
     11         16           0        3.425992   -1.418967   -0.797010
     12          6           0        1.855089   -0.982004    0.018841
     13          6           0        1.003458   -1.799602    0.648490
     14          6           0       -0.148545   -1.449108    1.466294
     15         16           0       -1.553386   -0.650669    1.181689
     16          7           0       -2.720577   -1.306509   -0.063664
     17          1           0       -2.396449    1.631533   -1.575965
     18          1           0       -0.798889    3.860469    0.538189
     19          1           0        2.224092    3.623448    0.354544
     20          1           0        4.079541    1.055496   -1.090617
     21          1           0        1.274605   -2.856203    0.651729
     22          1           0       -0.286592   -2.049190    2.361828
     23          1           0       -3.373491   -2.011314    0.259486
 ---------------------------------------------------------------------

 SCF Done:  E(RB3LYP) =  -1387.61396540     A.U. after    1 cycles

 The electronic state is 1-A.
 Alpha  occ. eigenvalues --  -88.98763 -88.89835 -19.11134 -14.35376 -10.28768
 Alpha  occ. eigenvalues --  -10.25131 -10.23451 -10.22987 -10.22103 -10.21950
 Alpha  occ. eigenvalues --  -10.21777 -10.21712 -10.21429 -10.21317 -10.20367
 Alpha  occ. eigenvalues --  -10.20141  -8.03664  -7.96021  -6.00078  -5.99919
 Alpha  occ. eigenvalues --   -5.99491  -5.92435  -5.92168  -5.91647  -1.03730
 Alpha  occ. eigenvalues --   -0.93930  -0.90064  -0.88149  -0.83550  -0.80809
 Alpha  occ. eigenvalues --   -0.76197  -0.72803  -0.69473  -0.65938  -0.63081
 Alpha  occ. eigenvalues --   -0.61212  -0.59257  -0.57093  -0.54736  -0.52974
 Alpha  occ. eigenvalues --   -0.50383  -0.48807  -0.47322  -0.46035  -0.43918
 Alpha  occ. eigenvalues --   -0.43404  -0.42622  -0.41928  -0.40975  -0.39908
 Alpha  occ. eigenvalues --   -0.38923  -0.38596  -0.36314  -0.35427  -0.34162
 Alpha  occ. eigenvalues --   -0.32467  -0.29370  -0.28606  -0.26245  -0.26129
 Alpha  occ. eigenvalues --   -0.24313  -0.20854  -0.18454
 Alpha virt. eigenvalues --   -0.09646  -0.05574  -0.04582  -0.01377   0.01037
 Alpha virt. eigenvalues --    0.03066   0.06700   0.07127   0.08237   0.09090
 Alpha virt. eigenvalues --    0.10368   0.11089   0.11981   0.12227   0.13019

 Mulliken charges:
               1
     1  O   -0.366410
     2  C    0.422131
     3  C   -0.305931
     4  C    0.104106
     5  C    0.185310
     6  C   -0.264908
     7  C   -0.351503
     8  C    0.262602
     9  C    0.113978
    10  C   -0.226998
    11  S   -0.097431
    12  C    0.191637
    13  C   -0.223716
    14  C   -0.249025
    15  S    0.199154
    16  N   -0.419341
    17  H    0.138985
    18  H    0.131084
    19  H    0.119205
    20  H    0.141072
    21  H    0.117687
    22  H    0.124547
    23  H    0.253765
 Sum of Mulliken charges =   0.00000

 Dipole moment (field-independent basis, Debye):
    X=              1.9834    Y=              1.5471    Z=              1.9393  Tot=              3.1762
 Quadrupole moment (field-independent basis, Debye-Ang):
   XX=           -114.8580   YY=            -90.9652   ZZ=           -108.2405
   XY=              4.1626   XZ=            -11.5450   YZ=             -5.7957

  Exact polarizability: 266.162  -6.963 202.453  -4.126  -0.591 116.649
 Approx polarizability: 489.626 -23.234 391.239 -13.903   8.815 231.832

                      1                      2                      3
                      A                      A                      A
 Frequencies --     41.5920                88.8544               113.0139
 Red. masses --     10.6076                 5.3932                 5.6369
 Frc consts  --      0.0108                 0.0251                 0.0424
 IR Inten    --      2.3803                 1.1972                 0.7677

                      4                      5                      6
                      A                      A                      A
 Frequencies --    127.3894               144.1583               176.1634
 Red. masses --      6.7290                 5.8523                 6.1112
 Frc consts  --      0.0643                 0.0717                 0.1117
 IR Inten    --      3.3841                 2.3104                 0.9031

                      7                      8                      9
                      A                      A                      A
 Frequencies --    206.5669               252.4955               275.9673
 Red. masses --      6.6288                 5.9903                 6.0263
 Frc consts  --      0.1667                 0.2250                 0.2704
 IR Inten    --      5.1786                 0.9148                14.2905

                     10                     11                     12
                      A                      A                      A
 Frequencies --    303.6954               316.4884               356.7406
 Red. masses --      6.5684                 4.7734                 5.4859
 Frc consts  --      0.3569                 0.2817                 0.4113
 IR Inten    --      4.4372                 2.9708                34.5085

                     13                     14                     15
                      A                      A                      A
 Frequencies --    366.1893               384.9348               412.4342
 Red. masses --      6.5254                 6.7528                 7.5648
 Frc consts  --      0.5155                 0.5895                 0.7582
 IR Inten    --     11.6467                 6.5634                28.4725

                     16                     17                     18
                      A                      A                      A
 Frequencies --    454.5278               465.5427               546.0500
 Red. masses --      6.6692                 5.4751                 1.4517
 Frc consts  --      0.8118                 0.6991                 0.2550
 IR Inten    --      3.8515                45.9143                65.4399

                     19                     20                     21
                      A                      A                      A
 Frequencies --    570.4729               576.5573               591.3287
 Red. masses --      4.2305                 2.8816                 2.3115
 Frc consts  --      0.8112                 0.5644                 0.4762
 IR Inten    --      7.8703                 4.0574                18.1800

                     22                     23                     24
                      A                      A                      A
 Frequencies --    618.0812               639.0380               658.4895
 Red. masses --      4.4649                 1.8608                 2.6862
 Frc consts  --      1.0050                 0.4477                 0.6863
 IR Inten    --     16.0694                22.0473                37.8304

                     25                     26                     27
                      A                      A                      A
 Frequencies --    692.3831               723.8843               726.3080
 Red. masses --      5.0280                 3.6006                 3.4993
 Frc consts  --      1.4202                 1.1116                 1.0876
 IR Inten    --      4.5850                22.8410                35.9704

                     28                     29                     30
                      A                      A                      A
 Frequencies --    738.6435               766.1240               793.4609
 Red. masses --      1.8495                 4.3590                 1.7993
 Frc consts  --      0.5945                 1.5074                 0.6674
 IR Inten    --     39.4231                56.9062                 2.8781

                     31                     32                     33
                      A                      A                      A
 Frequencies --    810.1553               818.1291               840.0847
 Red. masses --      3.0531                 3.3050                 2.0643
 Frc consts  --      1.1807                 1.3034                 0.8583
 IR Inten    --      9.6917                43.0424                 7.4193

                     34                     35                     36
                      A                      A                      A
 Frequencies --    873.5445               891.4278               903.6579
 Red. masses --      2.5614                 2.4898                 1.8317
 Frc consts  --      1.1516                 1.1657                 0.8813
 IR Inten    --     34.1958                 4.5774                25.7249

                     37                     38                     39
                      A                      A                      A
 Frequencies --    914.8781               950.4802               996.5484
 Red. masses --      2.5571                 3.0959                 3.7375
 Frc consts  --      1.2610                 1.6479                 2.1869
 IR Inten    --      5.0215                33.3911                59.2237

                     40                     41                     42
                      A                      A                      A
 Frequencies --   1119.8044              1162.6303              1177.8936
 Red. masses --      1.8719                 2.4660                 1.8537
 Frc consts  --      1.3830                 1.9640                 1.5153
 IR Inten    --      2.3164                28.9599                20.2353

                     43                     44                     45
                      A                      A                      A
 Frequencies --   1187.0528              1213.1383              1219.8729
 Red. masses --      1.7511                 1.4211                 2.0199
 Frc consts  --      1.4538                 1.2322                 1.7710
 IR Inten    --      2.8159                13.9401                14.7281

                     46                     47                     48
                      A                      A                      A
 Frequencies --   1235.7870              1258.5058              1283.0358
 Red. masses --      2.2276                 2.2989                 2.9973
 Frc consts  --      2.0044                 2.1453                 2.9070
 IR Inten    --      9.2689                63.1921                48.5725

                     49                     50                     51
                      A                      A                      A
 Frequencies --   1364.8469              1372.9583              1533.5618
 Red. masses --      2.1904                 1.4615                 7.2663
 Frc consts  --      2.4040                 1.6231                10.0686
 IR Inten    --     49.1364                 8.3235                31.6552

                     52                     53                     54
                      A                      A                      A
 Frequencies --   1609.6284              1646.6199              1686.9430
 Red. masses --      8.4665                 9.0115                 8.8393
 Frc consts  --     12.9243                14.3957                14.8207
 IR Inten    --     26.3901                65.9015                99.5022

                     55                     56                     57
                      A                      A                      A
 Frequencies --   1704.0957              1788.0094              3109.3598
 Red. masses --      9.2629                11.0089                 1.0859
 Frc consts  --     15.8484                20.7363                 6.1857
 IR Inten    --     23.9446               564.7613                12.3663

                     58                     59                     60
                      A                      A                      A
 Frequencies --   3154.2332              3217.9186              3226.3608
 Red. masses --      1.0841                 1.0972                 1.0939
 Frc consts  --      6.3549                 6.6937                 6.7086
 IR Inten    --      0.8745                17.1380                 0.1145

                     61                     62                     63
                      A                      A                      A
 Frequencies --   3248.0870              3254.6646              3573.8069
 Red. masses --      1.1012                 1.0970                 1.0769
 Frc consts  --      6.8449                 6.8466                 8.1037
 IR Inten    --      4.7770                 2.8536                41.0859

 - Thermochemistry -
 -------------------
 Temperature   298.150 Kelvin.  Pressure   1.00000 Atm.
 Atom     1 has atomic number  8 and mass  15.99491

 Molecular mass:   244.99691 amu.
 Principal axes and moments of inertia in atomic units:
                           1         2         3
     Eigenvalues --  2512.737605561.678016806.33371
           X            0.99994   0.01043  -0.00109
           Y           -0.01045   0.99971  -0.02152
           Z            0.00086   0.02153   0.99977
 This molecule is an asymmetric top.
 Rotational symmetry number  1.
 Warning -- assumption of classical behavior for rotation
           may cause significant error
 Rotational temperatures (Kelvin)      0.03447     0.01557     0.01273
 Rotational constants (GHZ):           0.71824     0.32450     0.26516
 Zero-point vibrational energy     403591.9 (Joules/Mol)
                                   96.46078 (Kcal/Mol)
 Warning -- explicit consideration of  22 degrees of freedom as
           vibrations may cause significant error
 Vibrational temperatures:     59.84   127.84   162.60   183.29   207.41
          (Kelvin)            253.46   297.20   363.28   397.06   436.95
                              455.36   513.27   526.86   553.84   593.40
                              653.96   669.81   785.64   820.78   829.54
                              850.79   889.28   919.43   947.42   996.18
                             1041.51  1045.00  1062.74  1102.28  1141.61
                             1165.63  1177.11  1208.69  1256.84  1282.57
                             1300.16  1316.31  1367.53  1433.81  1611.15
                             1672.77  1694.73  1707.90  1745.44  1755.12
                             1778.02  1810.71  1846.00  1963.71  1975.38
                             2206.45  2315.90  2369.12  2427.13  2451.81
                             2572.55  4473.68  4538.24  4629.87  4642.01
                             4673.27  4682.74  5141.91

 Zero-point correction=                           0.153720 (Hartree/Particle)
 Thermal correction to Energy=                    0.167355
 Thermal correction to Enthalpy=                  0.168299
 Thermal correction to Gibbs Free Energy=         0.113268
 Sum of electronic and zero-point Energies=          -1387.460245
 Sum of electronic and thermal Energies=             -1387.446611
 Sum of electronic and thermal Enthalpies=           -1387.445666
 Sum of electronic and thermal Free Energies=        -1387.500698

                     E (Thermal)             CV                S
                      KCal/Mol        Cal/Mol-Kelvin    Cal/Mol-Kelvin
 Total                  105.017             53.657            115.823
 Electronic               0.000              0.000              0.000
 Translational            0.889              2.981             42.389
 Rotational               0.889              2.981             32.920
 Vibrational            103.239             47.695             40.514
 Vibration     1          0.594              1.981              5.182
 Vibration     2          0.602              1.957              3.685
 Vibration     3          0.607              1.939              3.216
 Vibration     4          0.611              1.926              2.985
 Vibration     5          0.616              1.909              2.748
 Vibration     6          0.628              1.872              2.369
 Vibration     7          0.641              1.831              2.074
 Vibration     8          0.664              1.759              1.713
 Vibration     9          0.678              1.718              1.559
 Vibration    10          0.695              1.667              1.396
 Vibration    11          0.703              1.642              1.328
 Vibration    12          0.732              1.561              1.136
 Vibration    13          0.739              1.542              1.096
 Vibration    14          0.754              1.502              1.020
 Vibration    15          0.776              1.443              0.918
 Vibration    16          0.813              1.351              0.782
 Vibration    17          0.823              1.326              0.750
 Vibration    18          0.901              1.148              0.552
 Vibration    19          0.927              1.095              0.503
 Vibration    20          0.933              1.082              0.492
 Vibration    21          0.949              1.050              0.465
 Vibration    22          0.978              0.994              0.420

                           ! Non-Optimized Parameters !
 Normal termination of Gaussian 16 at Tue May 16 05:55:58 2023.
