 Gaussian 16, Revision A.03,
 Gaussian 16:  ES64L-G16RevA.03 25-Dec-2016

 -----------------------------
 # opt freq b3lyp/6-31g(2df,p)
 -----------------------------

 -------------------
 Title Card Required
 -------------------
 Symbolic Z-matrix:
 Charge =  0 Multiplicity = 1

 SCF Done:  E(RB3LYP) =  -590.601473900     A.U. after   33 cycles
 SCF Done:  E(RB3LYP) =  -590.726597400     A.U. after   22 cycles
 SCF Done:  E(RB3LYP) =  -588.856229289     A.U. after   28 cycles
 SCF Done:  E(RB3LYP) =  -590.839695687     A.U. after   23 cycles
 SCF Done:  E(RB3LYP) =  -590.875004817     A.U. after   18 cycles
 SCF Done:  E(RB3LYP) =  -590.918341106     A.U. after   18 cycles
 SCF Done:  E(RB3LYP) =  -590.960871471     A.U. after   19 cycles
 SCF Done:  E(RB3LYP) =  -590.978321549     A.U. after   19 cycles
 SCF Done:  E(RB3LYP) =  -590.996846501     A.U. after   18 cycles
 SCF Done:  E(RB3LYP) =  -591.004526937     A.U. after   18 cycles
 SCF Done:  E(RB3LYP) =  -591.041928048     A.U. after    9 cycles
 SCF Done:  E(RB3LYP) =  -591.041929755     A.U. after    9 cycles
 SCF Done:  E(RB3LYP) =  -591.041933172     A.U. after   10 cycles
 SCF Done:  E(RB3LYP) =  -591.041938165     A.U. after   11 cycles
 SCF Done:  E(RB3LYP) =  -591.041944416     A.U. after   11 cycles
 SCF Done:  E(RB3LYP) =  -591.041949429     A.U. after   11 cycles
 SCF Done:  E(RB3LYP) =  -591.041951015     A.U. after   10 cycles
 SCF Done:  E(RB3LYP) =  -591.041951922     A.U. after   10 cycles
 SCF Done:  E(RB3LYP) =  -591.041952218     A.U. after    9 cycles
 Optimization completed.
    -- Stationary point found.
 Normal termination of Gaussian 16 at Tue May 16 03:37:38 2023.

 ----------------------------------------------------------------------
 #N Geom=AllCheck Guess=TCheck SCRF=Check GenChk RB3LYP/6-31G(2df,p) Fr
 eq
 ----------------------------------------------------------------------

 Structure from the checkpoint file:  "Odc1c2ccqc3cccccc1-3rCdN2.chk"
 -------------------
 Title Card Required
 -------------------
 Charge =  0 Multiplicity = 1

                         Standard orientation:
 ---------------------------------------------------------------------
 Center     Atomic      Atomic             Coordinates (Angstroms)
 Number     Number       Type             X           Y           Z
 ---------------------------------------------------------------------
      1          8           0       -1.091577    2.376983    0.554747
      2          6           0       -1.151874    1.206766    0.330650
      3          6           0       -2.305510    0.195541    0.517776
      4          6           0       -1.636885   -0.906307    1.114749
      5          6           0       -1.017514   -1.488540   -0.042350
      6          6           0        0.296347   -0.970941    0.057900
      7          6           0        1.426402   -1.184971    1.023068
      8          6           0        2.568736   -1.163105    0.227334
      9          6           0        3.045536    0.191944    0.121815
     10          6           0        2.486835    0.697382   -1.051921
     11          6           0        1.245089    1.325865   -0.562241
     12          6           0        0.208776    0.472550   -0.287284
     13          6           0       -1.881330   -1.111576   -1.188514
     14          7           0       -2.659412   -0.142942   -0.870178
     15          1           0       -1.156401   -0.860016    2.083324
     16          1           0        1.422510   -0.572100    1.925094
     17          1           0        2.569926   -1.749449   -0.687053
     18          1           0        3.101458    0.806960    1.016843
     19          1           0        2.379368    0.011208   -1.887183
     20          1           0        1.192708    2.350664   -0.199248
     21          1           0       -1.868728   -1.590184   -2.164388
 ---------------------------------------------------------------------

 SCF Done:  E(RB3LYP) =  -591.041952218     A.U. after    1 cycles

 The electronic state is 1-A.
 Alpha  occ. eigenvalues --  -19.15404 -14.34261 -10.30118 -10.26298 -10.25198
 Alpha  occ. eigenvalues --  -10.24575 -10.24451 -10.23856 -10.23583 -10.23399
 Alpha  occ. eigenvalues --  -10.23171 -10.22559 -10.21450 -10.20667  -1.06645
 Alpha  occ. eigenvalues --   -0.97711  -0.90592  -0.84733  -0.80095  -0.77000
 Alpha  occ. eigenvalues --   -0.74007  -0.65710  -0.64567  -0.60909  -0.58958
 Alpha  occ. eigenvalues --   -0.58011  -0.54316  -0.52859  -0.49249  -0.48179
 Alpha  occ. eigenvalues --   -0.47704  -0.45653  -0.44576  -0.43800  -0.43161
 Alpha  occ. eigenvalues --   -0.42478  -0.42081  -0.40239  -0.38923  -0.34723
 Alpha  occ. eigenvalues --   -0.33063  -0.30349  -0.28005  -0.26595  -0.25845
 Alpha  occ. eigenvalues --   -0.21467  -0.19487
 Alpha virt. eigenvalues --   -0.10701  -0.08110  -0.06924  -0.05356  -0.03481
 Alpha virt. eigenvalues --   -0.00838   0.04345   0.07290   0.10909   0.11805
 Alpha virt. eigenvalues --    0.13175   0.13667   0.14833   0.16812   0.18189

 Mulliken charges:
               1
     1  O   -0.277458
     2  C    0.340907
     3  C   -0.129632
     4  C   -0.111185
     5  C   -0.109914
     6  C    0.124248
     7  C   -0.226563
     8  C   -0.083239
     9  C   -0.048321
    10  C   -0.191150
    11  C   -0.178141
    12  C    0.149557
    13  C   -0.022089
    14  N   -0.169691
    15  H    0.144084
    16  H    0.111707
    17  H    0.132005
    18  H    0.147610
    19  H    0.126138
    20  H    0.146539
    21  H    0.124588
 Sum of Mulliken charges =   0.00000

 Dipole moment (field-independent basis, Debye):
    X=              4.5279    Y=             -2.4986    Z=             -0.1246  Tot=              5.1731
 Quadrupole moment (field-independent basis, Debye-Ang):
   XX=            -86.0511   YY=            -83.6098   ZZ=            -75.1692
   XY=              6.2639   XZ=              0.9083   YZ=              2.7950

  Exact polarizability: 191.605   7.403 125.502  -8.221  -4.406 106.778
 Approx polarizability: 454.091  14.654 310.682 -52.037 -42.694 231.105

                      1                      2                      3
                      A                      A                      A
 Frequencies --     85.5993               108.6384               166.2278
 Red. masses --      7.5867                 5.7633                 4.8524
 Frc consts  --      0.0328                 0.0401                 0.0790
 IR Inten    --      0.6541                 1.5772                 2.9738

                      4                      5                      6
                      A                      A                      A
 Frequencies --    210.4413               269.6586               294.0446
 Red. masses --      5.1531                 7.5436                 3.4165
 Frc consts  --      0.1345                 0.3232                 0.1740
 IR Inten    --      3.9996                 3.6351                 5.6716

                      7                      8                      9
                      A                      A                      A
 Frequencies --    349.0190               368.5293               391.3753
 Red. masses --      8.2631                 4.2202                 4.1741
 Frc consts  --      0.5930                 0.3377                 0.3767
 IR Inten    --     10.4242                13.3913                 5.2515

                     10                     11                     12
                      A                      A                      A
 Frequencies --    431.6866               453.8947               481.9262
 Red. masses --      4.3020                 5.0536                 3.9463
 Frc consts  --      0.4723                 0.6134                 0.5400
 IR Inten    --      9.4804               112.0834                19.2909

                     13                     14                     15
                      A                      A                      A
 Frequencies --    505.3580               543.4346               592.9947
 Red. masses --      5.6424                 5.5512                 5.4144
 Frc consts  --      0.8490                 0.9659                 1.1218
 IR Inten    --     18.4710                98.0026                 1.0933

                     16                     17                     18
                      A                      A                      A
 Frequencies --    610.9058               639.2338               714.1144
 Red. masses --      4.3407                 5.1331                 2.0195
 Frc consts  --      0.9545                 1.2358                 0.6068
 IR Inten    --     36.9296                13.9370               126.9748

                     19                     20                     21
                      A                      A                      A
 Frequencies --    723.1136               741.0722               767.6825
 Red. masses --      3.7185                 5.0859                 4.7179
 Frc consts  --      1.1456                 1.6456                 1.6382
 IR Inten    --     54.8662               111.6679                40.1279

                     22                     23                     24
                      A                      A                      A
 Frequencies --    777.3859               795.3358               807.2852
 Red. masses --      3.2523                 4.9364                 1.5762
 Frc consts  --      1.1580                 1.8398                 0.6052
 IR Inten    --     65.4774                17.6172                 7.5674

                     25                     26                     27
                      A                      A                      A
 Frequencies --    856.6246               862.9055               901.7713
 Red. masses --      3.1004                 2.2898                 2.1489
 Frc consts  --      1.3404                 1.0046                 1.0296
 IR Inten    --     38.5488                20.9081                73.0129

                     28                     29                     30
                      A                      A                      A
 Frequencies --    912.6623               959.8294               964.5573
 Red. masses --      2.2984                 1.4526                 3.0449
 Frc consts  --      1.1280                 0.7885                 1.6691
 IR Inten    --     27.0019                50.9341                15.4808

                     31                     32                     33
                      A                      A                      A
 Frequencies --    983.8364              1027.3276              1076.1173
 Red. masses --      2.0449                 3.3831                 1.3256
 Frc consts  --      1.1662                 2.1037                 0.9044
 IR Inten    --      4.1287                29.5129                49.2928

                     34                     35                     36
                      A                      A                      A
 Frequencies --   1106.4672              1112.4993              1120.0264
 Red. masses --      2.8701                 3.2018                 2.6321
 Frc consts  --      2.0702                 2.3348                 1.9454
 IR Inten    --      6.5870                 7.3725                 3.6985

                     37                     38                     39
                      A                      A                      A
 Frequencies --   1199.7489              1205.2624              1255.4939
 Red. masses --      1.2296                 2.7372                 1.8830
 Frc consts  --      1.0428                 2.3427                 1.7487
 IR Inten    --      1.9138                 9.6583                15.5306

                     40                     41                     42
                      A                      A                      A
 Frequencies --   1265.4699              1274.9451              1291.3902
 Red. masses --      2.4297                 1.8070                 1.5596
 Frc consts  --      2.2925                 1.7306                 1.5325
 IR Inten    --      3.8993                 0.5359                 9.8614

                     43                     44                     45
                      A                      A                      A
 Frequencies --   1301.9022              1310.5560              1384.9304
 Red. masses --      1.6298                 1.8622                 6.2993
 Frc consts  --      1.6275                 1.8845                 7.1187
 IR Inten    --     10.7995                 5.5703                10.4577

                     46                     47                     48
                      A                      A                      A
 Frequencies --   1398.7442              1414.1361              1477.0063
 Red. masses --      1.8403                 1.7386                 7.2229
 Frc consts  --      2.1213                 2.0485                 9.2839
 IR Inten    --     18.2351                12.4252                61.8119

                     49                     50                     51
                      A                      A                      A
 Frequencies --   1588.2353              1834.2278              3099.8722
 Red. masses --      7.9467                13.0877                 1.0851
 Frc consts  --     11.8105                25.9430                 6.1435
 IR Inten    --      8.1748               270.3797                11.0491

                     52                     53                     54
                      A                      A                      A
 Frequencies --   3146.6046              3149.6685              3158.8862
 Red. masses --      1.0883                 1.0870                 1.0893
 Frc consts  --      6.3486                 6.3535                 6.4044
 IR Inten    --      4.3833                 1.3237                 4.0658

                     55                     56                     57
                      A                      A                      A
 Frequencies --   3166.4691              3168.6373              3219.3466
 Red. masses --      1.0872                 1.0940                 1.0921
 Frc consts  --      6.4224                 6.4715                 6.6689
 IR Inten    --      5.7549                24.3646                 4.7720

 - Thermochemistry -
 -------------------
 Temperature   298.150 Kelvin.  Pressure   1.00000 Atm.
 Atom     1 has atomic number  8 and mass  15.99491

 Molecular mass:   181.05276 amu.
 Principal axes and moments of inertia in atomic units:
                           1         2         3
     Eigenvalues --  1244.765022591.196003112.13779
           X            0.99995   0.01025   0.00206
           Y           -0.01027   0.99985   0.01425
           Z           -0.00191  -0.01427   0.99990
 This molecule is an asymmetric top.
 Rotational symmetry number  1.
 Warning -- assumption of classical behavior for rotation
           may cause significant error
 Rotational temperatures (Kelvin)      0.06958     0.03343     0.02783
 Rotational constants (GHZ):           1.44986     0.69649     0.57990
 Zero-point vibrational energy     388936.6 (Joules/Mol)
                                   92.95807 (Kcal/Mol)
 Warning -- explicit consideration of  16 degrees of freedom as
           vibrations may cause significant error
 Vibrational temperatures:    123.16   156.31   239.16   302.78   387.98
          (Kelvin)            423.06   502.16   530.23   563.10   621.10
                              653.05   693.38   727.10   781.88   853.19
                              878.96   919.71  1027.45  1040.40  1066.24
                             1104.52  1118.48  1144.31  1161.50  1232.49
                             1241.53  1297.45  1313.12  1380.98  1387.78
                             1415.52  1478.10  1548.29  1591.96  1600.64
                             1611.47  1726.17  1734.10  1806.38  1820.73
                             1834.36  1858.02  1873.15  1885.60  1992.61
                             2012.48  2034.63  2125.08  2285.12  2639.04
                             4460.02  4527.26  4531.67  4544.93  4555.84
                             4558.96  4631.92

 Zero-point correction=                           0.148138 (Hartree/Particle)
 Thermal correction to Energy=                    0.158432
 Thermal correction to Enthalpy=                  0.159376
 Thermal correction to Gibbs Free Energy=         0.112740
 Sum of electronic and zero-point Energies=           -590.893814
 Sum of electronic and thermal Energies=              -590.883520
 Sum of electronic and thermal Enthalpies=            -590.882576
 Sum of electronic and thermal Free Energies=         -590.929213

                     E (Thermal)             CV                S
                      KCal/Mol        Cal/Mol-Kelvin    Cal/Mol-Kelvin
 Total                   99.418             42.674             98.155
 Electronic               0.000              0.000              0.000
 Translational            0.889              2.981             41.487
 Rotational               0.889              2.981             30.685
 Vibrational             97.640             36.713             25.982
 Vibration     1          0.601              1.959              3.758
 Vibration     2          0.606              1.942              3.293
 Vibration     3          0.624              1.884              2.478
 Vibration     4          0.643              1.825              2.040
 Vibration     5          0.674              1.729              1.598
 Vibration     6          0.689              1.685              1.451
 Vibration     7          0.726              1.577              1.171
 Vibration     8          0.741              1.537              1.086
 Vibration     9          0.759              1.489              0.995
 Vibration    10          0.793              1.401              0.853
 Vibration    11          0.812              1.352              0.784
 Vibration    12          0.838              1.290              0.705
 Vibration    13          0.861              1.238              0.645
 Vibration    14          0.899              1.154              0.558
 Vibration    15          0.951              1.047              0.462
 Vibration    16          0.970              1.009              0.431

 Optimization completed.
    -- Stationary point found.
 Normal termination of Gaussian 16 at Tue May 16 05:02:01 2023.
