 Gaussian 16, Revision A.03,
 Gaussian 16:  ES64L-G16RevA.03 25-Dec-2016

 -----------------------------
 # opt freq b3lyp/6-31g(2df,p)
 -----------------------------

 -------------------
 Title Card Required
 -------------------
 Symbolic Z-matrix:
 Charge =  0 Multiplicity = 1

 SCF Done:  E(RB3LYP) =  -723.682487568     A.U. after   17 cycles
 SCF Done:  E(RB3LYP) =  -723.762939319     A.U. after   15 cycles
 SCF Done:  E(RB3LYP) =  -723.835589891     A.U. after   15 cycles
 SCF Done:  E(RB3LYP) =  -723.870847795     A.U. after   15 cycles
 SCF Done:  E(RB3LYP) =  -723.911530633     A.U. after   15 cycles
 SCF Done:  E(RB3LYP) =  -723.953760558     A.U. after   15 cycles
 SCF Done:  E(RB3LYP) =  -723.982038236     A.U. after   15 cycles
 SCF Done:  E(RB3LYP) =  -723.994343909     A.U. after   14 cycles
 SCF Done:  E(RB3LYP) =  -723.997395187     A.U. after   15 cycles
 SCF Done:  E(RB3LYP) =  -724.000381101     A.U. after   15 cycles
 SCF Done:  E(RB3LYP) =  -724.003760076     A.U. after   15 cycles
 SCF Done:  E(RB3LYP) =  -724.004653838     A.U. after   13 cycles
 SCF Done:  E(RB3LYP) =  -724.004770416     A.U. after   12 cycles
 SCF Done:  E(RB3LYP) =  -724.004804246     A.U. after   12 cycles
 SCF Done:  E(RB3LYP) =  -724.004812618     A.U. after   10 cycles
 SCF Done:  E(RB3LYP) =  -724.004819952     A.U. after    9 cycles
 SCF Done:  E(RB3LYP) =  -724.004821465     A.U. after    9 cycles
 SCF Done:  E(RB3LYP) =  -724.004822402     A.U. after    8 cycles
 SCF Done:  E(RB3LYP) =  -724.004822898     A.U. after    8 cycles
 Optimization completed.
    -- Stationary point found.
 Normal termination of Gaussian 16 at Thu May 18 10:53:40 2023.

 ----------------------------------------------------------------------
 #N Geom=AllCheck Guess=TCheck SCRF=Check GenChk RB3LYP/6-31G(2df,p) Fr
 eq
 ----------------------------------------------------------------------

 Structure from the checkpoint file:  "OdC1CdCCdC2CdCdCdCCdC2NCC2NdC12.chk"
 -------------------
 Title Card Required
 -------------------
 Charge =  0 Multiplicity = 1

                         Standard orientation:
 ---------------------------------------------------------------------
 Center     Atomic      Atomic             Coordinates (Angstroms)
 Number     Number       Type             X           Y           Z
 ---------------------------------------------------------------------
      1          8           0        4.363795   -1.009517    0.354963
      2          6           0        3.167631   -0.789825    0.312487
      3          6           0        2.119201   -1.786258    0.124500
      4          6           0        0.818491   -1.400595    0.249177
      5          6           0       -0.427824   -1.943373   -0.144403
      6          6           0       -1.548618   -1.121757   -0.248679
      7          6           0       -2.859207   -1.724792   -0.333925
      8          6           0       -3.861783   -0.913516    0.043468
      9          6           0       -4.131184    0.215816    0.495985
     10          6           0       -3.466774    1.359563    0.781027
     11          6           0       -2.129505    1.402338    0.296468
     12          6           0       -1.365111    0.392755   -0.303049
     13          7           0       -0.263620    0.765992   -1.045214
     14          6           0        0.647941    1.898964   -0.831022
     15          6           0        1.658708    1.692935    0.304283
     16          7           0        3.154313    1.788023   -0.022275
     17          6           0        2.694644    0.655018    0.274288
     18          1           0        2.436234   -2.764889   -0.223094
     19          1           0        0.716739   -0.424652    0.696676
     20          1           0       -0.540836   -3.003007   -0.355019
     21          1           0       -2.940638   -2.787217   -0.536955
     22          1           0       -3.895192    2.238297    1.249927
     23          1           0       -1.680639    2.391597    0.282502
     24          1           0        0.220098   -0.024048   -1.441874
     25          1           0        0.074778    2.814662   -0.667621
     26          1           0        1.198250    2.033430   -1.767150
     27          1           0        1.366347    2.100208    1.271705
 ---------------------------------------------------------------------

 SCF Done:  E(RB3LYP) =  -724.004822898     A.U. after    1 cycles

 The electronic state is 1-A.
 Alpha  occ. eigenvalues --  -19.12155 -14.37470 -14.35730 -10.27882 -10.27558
 Alpha  occ. eigenvalues --  -10.24692 -10.24507 -10.24461 -10.24183 -10.23623
 Alpha  occ. eigenvalues --  -10.23583 -10.21964 -10.21758 -10.20944 -10.20929
 Alpha  occ. eigenvalues --  -10.19725 -10.19469  -1.03344  -0.99716  -0.96813
 Alpha  occ. eigenvalues --   -0.87342  -0.83693  -0.80588  -0.78941  -0.74524
 Alpha  occ. eigenvalues --   -0.72697  -0.67781  -0.65746  -0.63215  -0.61407
 Alpha  occ. eigenvalues --   -0.58734  -0.57111  -0.53890  -0.52555  -0.50627
 Alpha  occ. eigenvalues --   -0.50018  -0.49189  -0.46825  -0.46433  -0.45858
 Alpha  occ. eigenvalues --   -0.44743  -0.44269  -0.41931  -0.41067  -0.40592
 Alpha  occ. eigenvalues --   -0.39749  -0.39280  -0.38124  -0.36505  -0.35099
 Alpha  occ. eigenvalues --   -0.33374  -0.30895  -0.29847  -0.28614  -0.28036
 Alpha  occ. eigenvalues --   -0.24608  -0.24123  -0.19123
 Alpha virt. eigenvalues --   -0.09485  -0.08267  -0.05742  -0.04000   0.01130
 Alpha virt. eigenvalues --    0.06449   0.06603   0.07694   0.09047   0.09889
 Alpha virt. eigenvalues --    0.10819   0.11837   0.12842   0.13525   0.13885

 Mulliken charges:
               1
     1  O   -0.329520
     2  C    0.286687
     3  C   -0.279536
     4  C   -0.016732
     5  C   -0.285034
     6  C    0.225583
     7  C   -0.266731
     8  C    0.120857
     9  C   -0.016435
    10  C   -0.178041
    11  C   -0.143909
    12  C    0.187573
    13  N   -0.288908
    14  C   -0.208504
    15  C   -0.149843
    16  N   -0.228514
    17  C    0.242954
    18  H    0.111177
    19  H    0.122733
    20  H    0.098423
    21  H    0.128939
    22  H    0.129265
    23  H    0.099486
    24  H    0.261212
    25  H    0.131895
    26  H    0.137152
    27  H    0.107771
 Sum of Mulliken charges =  -0.00000

 Dipole moment (field-independent basis, Debye):
    X=             -5.7647    Y=              0.3849    Z=             -0.6197  Tot=              5.8107
 Quadrupole moment (field-independent basis, Debye-Ang):
   XX=           -125.6230   YY=            -89.2700   ZZ=            -95.2280
   XY=             -2.2726   XZ=             -2.7985   YZ=              4.1712

  Exact polarizability: 323.687 -21.117 185.194  -9.948  11.845  85.934
 Approx polarizability: 691.203 -76.615 381.061 -34.743  37.966 158.001

                      1                      2                      3
                      A                      A                      A
 Frequencies --     51.3937                73.7405                85.2212
 Red. masses --      6.2180                 5.9125                 6.5399
 Frc consts  --      0.0097                 0.0189                 0.0280
 IR Inten    --      2.4272                 1.8887                 2.7802

                      4                      5                      6
                      A                      A                      A
 Frequencies --    139.7089               183.3172               203.0026
 Red. masses --      5.6148                 4.7118                 3.9218
 Frc consts  --      0.0646                 0.0933                 0.0952
 IR Inten    --      1.0647                11.8103                 8.5282

                      7                      8                      9
                      A                      A                      A
 Frequencies --    235.9037               251.8946               268.5499
 Red. masses --      4.3649                 3.5874                 5.9302
 Frc consts  --      0.1431                 0.1341                 0.2520
 IR Inten    --      5.7621                 4.3322                 0.5984

                     10                     11                     12
                      A                      A                      A
 Frequencies --    298.5504               310.8838               353.6871
 Red. masses --      5.9805                 4.9619                 3.2278
 Frc consts  --      0.3141                 0.2825                 0.2379
 IR Inten    --      5.3274                 8.5039                 3.2310

                     13                     14                     15
                      A                      A                      A
 Frequencies --    358.4709               387.1249               413.2893
 Red. masses --      7.3060                 4.5429                 3.5506
 Frc consts  --      0.5531                 0.4011                 0.3573
 IR Inten    --     10.2721                 5.7083                14.0666

                     16                     17                     18
                      A                      A                      A
 Frequencies --    428.7716               433.2546               462.4450
 Red. masses --      4.9398                 4.9773                 6.1191
 Frc consts  --      0.5351                 0.5505                 0.7710
 IR Inten    --     17.4482                 4.7918                11.0574

                     19                     20                     21
                      A                      A                      A
 Frequencies --    508.7295               528.9380               564.6820
 Red. masses --      3.7340                 4.2482                 4.9293
 Frc consts  --      0.5694                 0.7003                 0.9261
 IR Inten    --      3.2579                 1.9379                 1.3479

                     22                     23                     24
                      A                      A                      A
 Frequencies --    624.5715               653.6230               669.7561
 Red. masses --      6.0246                 4.0814                 3.3958
 Frc consts  --      1.3847                 1.0273                 0.8975
 IR Inten    --     41.6008                40.6079                25.1584

                     25                     26                     27
                      A                      A                      A
 Frequencies --    685.5177               703.4220               722.2660
 Red. masses --      4.2797                 2.3347                 3.2409
 Frc consts  --      1.1850                 0.6806                 0.9961
 IR Inten    --     31.0982                30.9437                30.9089

                     28                     29                     30
                      A                      A                      A
 Frequencies --    746.1652               758.5193               803.0379
 Red. masses --      2.0744                 3.8748                 1.5893
 Frc consts  --      0.6805                 1.3135                 0.6039
 IR Inten    --     56.2235                15.6094                43.8780

                     31                     32                     33
                      A                      A                      A
 Frequencies --    829.5297               837.1260               870.2895
 Red. masses --      2.1427                 2.5724                 1.6164
 Frc consts  --      0.8687                 1.0621                 0.7213
 IR Inten    --     33.6537                 6.6368                17.1994

                     34                     35                     36
                      A                      A                      A
 Frequencies --    887.1702               926.0283               940.2154
 Red. masses --      1.9765                 1.3981                 3.5548
 Frc consts  --      0.9165                 0.7064                 1.8515
 IR Inten    --     31.8355                10.5638                 8.9233

                     37                     38                     39
                      A                      A                      A
 Frequencies --    989.3838              1016.8193              1028.0397
 Red. masses --      2.9843                 1.4551                 2.9134
 Frc consts  --      1.7212                 0.8864                 1.8141
 IR Inten    --     14.7869                22.2740                 7.5062

                     40                     41                     42
                      A                      A                      A
 Frequencies --   1054.4068              1073.5452              1123.5568
 Red. masses --      2.6223                 1.1499                 2.1917
 Frc consts  --      1.7177                 0.7808                 1.6301
 IR Inten    --      0.8628                22.8136                25.1356

                     43                     44                     45
                      A                      A                      A
 Frequencies --   1170.2300              1176.1139              1208.5820
 Red. masses --      2.3896                 2.2519                 3.5775
 Frc consts  --      1.9281                 1.8352                 3.0788
 IR Inten    --    157.5188                39.0917                52.8063

                     46                     47                     48
                      A                      A                      A
 Frequencies --   1237.4385              1252.6687              1262.4297
 Red. masses --      2.1521                 1.9574                 1.5023
 Frc consts  --      1.9416                 1.8097                 1.4107
 IR Inten    --     65.8272                 4.3479                76.4867

                     49                     50                     51
                      A                      A                      A
 Frequencies --   1268.4287              1301.5831              1314.9242
 Red. masses --      2.2275                 2.3284                 1.6715
 Frc consts  --      2.1115                 2.3241                 1.7028
 IR Inten    --    127.7909                 7.7502                53.6803

                     52                     53                     54
                      A                      A                      A
 Frequencies --   1358.0018              1371.4304              1376.2661
 Red. masses --      1.4768                 1.6862                 1.3289
 Frc consts  --      1.6047                 1.8686                 1.4830
 IR Inten    --     20.3057                 2.8569                 5.4495

                     55                     56                     57
                      A                      A                      A
 Frequencies --   1402.0325              1409.3930              1471.4375
 Red. masses --      2.0898                 1.3593                 3.0387
 Frc consts  --      2.4203                 1.5908                 3.8763
 IR Inten    --    170.7462                49.8631               140.8843

                     58                     59                     60
                      A                      A                      A
 Frequencies --   1486.5938              1495.7697              1539.0135
 Red. masses --      1.0985                 4.1963                 1.6304
 Frc consts  --      1.4303                 5.5315                 2.2753
 IR Inten    --     23.5877               285.1839                26.2249

                     61                     62                     63
                      A                      A                      A
 Frequencies --   1569.6102              1645.3571              1730.3171
 Red. masses --      3.1588                 4.3158                12.3841
 Frc consts  --      4.5851                 6.8839                21.8456
 IR Inten    --    117.8565               526.0609               519.3833

                     64                     65                     66
                      A                      A                      A
 Frequencies --   1796.4589              2090.0181              3061.2665
 Red. masses --     12.0117                11.3013                 1.0600
 Frc consts  --     22.8396                29.0855                 5.8527
 IR Inten    --      0.3950               141.0547                25.0502

                     67                     68                     69
                      A                      A                      A
 Frequencies --   3097.9475              3114.5289              3161.9222
 Red. masses --      1.0907                 1.0998                 1.0833
 Frc consts  --      6.1676                 6.2855                 6.3811
 IR Inten    --      6.2390                15.8184                 9.6208

                     70                     71                     72
                      A                      A                      A
 Frequencies --   3163.8603              3179.7236              3180.3781
 Red. masses --      1.0881                 1.0907                 1.0900
 Frc consts  --      6.4173                 6.4973                 6.4957
 IR Inten    --      5.9451                 3.4705                 7.7497

                     73                     74                     75
                      A                      A                      A
 Frequencies --   3191.2348              3244.7130              3615.2678
 Red. masses --      1.0918                 1.0820                 1.0749
 Frc consts  --      6.5512                 6.7119                 8.2773
 IR Inten    --     10.6164                 1.6463                15.6360

 - Thermochemistry -
 -------------------
 Temperature   298.150 Kelvin.  Pressure   1.00000 Atm.
 Atom     1 has atomic number  8 and mass  15.99491

 Molecular mass:   222.07931 amu.
 Principal axes and moments of inertia in atomic units:
                           1         2         3
     Eigenvalues --  1722.401535633.900256967.88951
           X            0.99999  -0.00406  -0.00296
           Y            0.00409   0.99995   0.00953
           Z            0.00292  -0.00954   0.99995
 This molecule is an asymmetric top.
 Rotational symmetry number  1.
 Warning -- assumption of classical behavior for rotation
           may cause significant error
 Rotational temperatures (Kelvin)      0.05029     0.01537     0.01243
 Rotational constants (GHZ):           1.04781     0.32034     0.25901
 Zero-point vibrational energy     534907.1 (Joules/Mol)
                                  127.84587 (Kcal/Mol)
 Warning -- explicit consideration of  21 degrees of freedom as
           vibrations may cause significant error
 Vibrational temperatures:     73.94   106.10   122.61   201.01   263.75
          (Kelvin)            292.08   339.41   362.42   386.38   429.55
                              447.29   508.88   515.76   556.99   594.63
                              616.91   623.36   665.36   731.95   761.02
                              812.45   898.62   940.42   963.63   986.31
                             1012.07  1039.18  1073.57  1091.34  1155.39
                             1193.51  1204.44  1252.15  1276.44  1332.35
                             1352.76  1423.50  1462.98  1479.12  1517.06
                             1544.59  1616.55  1683.70  1692.17  1738.88
                             1780.40  1802.31  1816.35  1824.99  1872.69
                             1891.88  1953.86  1973.18  1980.14  2017.21
                             2027.80  2117.07  2138.88  2152.08  2214.30
                             2258.32  2367.30  2489.54  2584.70  3007.07
                             4404.48  4457.26  4481.11  4549.30  4552.09
                             4574.91  4575.85  4591.48  4668.42  5201.56

 Zero-point correction=                           0.203735 (Hartree/Particle)
 Thermal correction to Energy=                    0.217517
 Thermal correction to Enthalpy=                  0.218461
 Thermal correction to Gibbs Free Energy=         0.163623
 Sum of electronic and zero-point Energies=           -723.801088
 Sum of electronic and thermal Energies=              -723.787306
 Sum of electronic and thermal Enthalpies=            -723.786361
 Sum of electronic and thermal Free Energies=         -723.841200

                     E (Thermal)             CV                S
                      KCal/Mol        Cal/Mol-Kelvin    Cal/Mol-Kelvin
 Total                  136.494             54.979            115.417
 Electronic               0.000              0.000              0.000
 Translational            0.889              2.981             42.096
 Rotational               0.889              2.981             32.580
 Vibrational            134.717             49.017             40.741
 Vibration     1          0.596              1.977              4.763
 Vibration     2          0.599              1.966              4.051
 Vibration     3          0.601              1.959              3.767
 Vibration     4          0.615              1.914              2.808
 Vibration     5          0.631              1.863              2.294
 Vibration     6          0.639              1.836              2.106
 Vibration     7          0.655              1.786              1.834
 Vibration     8          0.664              1.760              1.717
 Vibration     9          0.673              1.731              1.606
 Vibration    10          0.692              1.676              1.425
 Vibration    11          0.700              1.653              1.358
 Vibration    12          0.730              1.568              1.150
 Vibration    13          0.733              1.558              1.129
 Vibration    14          0.756              1.498              1.011
 Vibration    15          0.777              1.441              0.915
 Vibration    16          0.790              1.408              0.863
 Vibration    17          0.794              1.398              0.848
 Vibration    18          0.820              1.333              0.759
 Vibration    19          0.864              1.231              0.637
 Vibration    20          0.884              1.186              0.590
 Vibration    21          0.921              1.108              0.515

 Optimization completed.
    -- Stationary point found.
 Normal termination of Gaussian 16 at Thu May 18 13:49:35 2023.
