 Gaussian 16, Revision A.03,
 Gaussian 16:  ES64L-G16RevA.03 25-Dec-2016

 -----------------------------
 # opt freq b3lyp/6-31g(2df,p)
 -----------------------------

 -------------------
 Title Card Required
 -------------------
 Symbolic Z-matrix:
 Charge =  0 Multiplicity = 1

 SCF Done:  E(RB3LYP) =  -551.364937685     A.U. after   29 cycles
 SCF Done:  E(RB3LYP) =  -551.460995866     A.U. after   22 cycles
 SCF Done:  E(RB3LYP) =  -551.576044718     A.U. after   22 cycles
 SCF Done:  E(RB3LYP) =  -551.605005168     A.U. after   21 cycles
 SCF Done:  E(RB3LYP) =  -551.674273958     A.U. after   20 cycles
 SCF Done:  E(RB3LYP) =  -551.786749206     A.U. after   22 cycles
 SCF Done:  E(RB3LYP) =  -551.845494776     A.U. after   20 cycles
 SCF Done:  E(RB3LYP) =  -551.925547647     A.U. after   20 cycles
 SCF Done:  E(RB3LYP) =  -551.968815118     A.U. after   18 cycles
 SCF Done:  E(RB3LYP) =  -552.007181401     A.U. after   17 cycles
 SCF Done:  E(RB3LYP) =  -552.030627513     A.U. after   14 cycles
 SCF Done:  E(RB3LYP) =  -552.030748829     A.U. after   14 cycles
 SCF Done:  E(RB3LYP) =  -552.030806143     A.U. after   12 cycles
 SCF Done:  E(RB3LYP) =  -552.030834398     A.U. after   12 cycles
 SCF Done:  E(RB3LYP) =  -552.030846239     A.U. after   11 cycles
 SCF Done:  E(RB3LYP) =  -552.030853376     A.U. after   11 cycles
 SCF Done:  E(RB3LYP) =  -552.030857934     A.U. after   11 cycles
 SCF Done:  E(RB3LYP) =  -552.030861041     A.U. after   11 cycles
 SCF Done:  E(RB3LYP) =  -552.030861657     A.U. after   10 cycles
 Optimization completed.
    -- Stationary point found.
 Normal termination of Gaussian 16 at Sat May 20 04:20:48 2023.

 ----------------------------------------------------------------------
 #N Geom=AllCheck Guess=TCheck SCRF=Check GenChk RB3LYP/6-31G(2df,p) Fr
 eq
 ----------------------------------------------------------------------

 Structure from the checkpoint file:  "OdC1CdCC2dCdC3CdCNdC3CdC12.chk"
 -------------------
 Title Card Required
 -------------------
 Charge =  0 Multiplicity = 1

                         Standard orientation:
 ---------------------------------------------------------------------
 Center     Atomic      Atomic             Coordinates (Angstroms)
 Number     Number       Type             X           Y           Z
 ---------------------------------------------------------------------
      1          8           0       -2.987713    1.724925    0.003713
      2          6           0       -2.459823    0.637907    0.015324
      3          6           0       -3.111709   -0.706440   -0.041900
      4          6           0       -2.171322   -1.667758   -0.026960
      5          6           0       -0.837930   -1.075167    0.068164
      6          6           0        0.452925   -1.354629    0.020032
      7          6           0        1.666556   -0.852179   -0.047701
      8          6           0        3.059737   -0.971428    0.020347
      9          6           0        3.558658    0.329757    0.006814
     10          7           0        2.593907    1.272540   -0.014515
     11          6           0        1.406228    0.705308   -0.066804
     12          6           0        0.095106    1.220231    0.001399
     13          6           0       -0.976541    0.376854    0.082785
     14          1           0       -4.182751   -0.837542   -0.081859
     15          1           0       -2.331470   -2.736558   -0.066863
     16          1           0        3.608519   -1.900047    0.040190
     17          1           0        4.601089    0.617575    0.020540
     18          1           0       -0.042340    2.294653   -0.029107
 ---------------------------------------------------------------------

 SCF Done:  E(RB3LYP) =  -552.030861657     A.U. after    1 cycles

 The electronic state is 1-A.
 Alpha  occ. eigenvalues --  -19.14562 -14.33180 -10.28466 -10.27955 -10.25090
 Alpha  occ. eigenvalues --  -10.24009 -10.23607 -10.23305 -10.21985 -10.21757
 Alpha  occ. eigenvalues --  -10.21668 -10.20969 -10.19864  -1.05271  -0.96779
 Alpha  occ. eigenvalues --   -0.90679  -0.83817  -0.79878  -0.75102  -0.73467
 Alpha  occ. eigenvalues --   -0.67670  -0.63672  -0.60667  -0.56023  -0.55545
 Alpha  occ. eigenvalues --   -0.51830  -0.50475  -0.47869  -0.44774  -0.44629
 Alpha  occ. eigenvalues --   -0.43966  -0.42533  -0.41558  -0.41344  -0.40955
 Alpha  occ. eigenvalues --   -0.39208  -0.36981  -0.31488  -0.30742  -0.28468
 Alpha  occ. eigenvalues --   -0.26245  -0.22533  -0.22235
 Alpha virt. eigenvalues --   -0.12583  -0.09739  -0.03076   0.02788   0.07090
 Alpha virt. eigenvalues --    0.09483   0.10683   0.11869   0.13009   0.15008
 Alpha virt. eigenvalues --    0.15523   0.16495   0.17131   0.17821   0.20143

 Mulliken charges:
               1
     1  O   -0.307548
     2  C    0.308361
     3  C   -0.204652
     4  C   -0.196872
     5  C    0.111358
     6  C   -0.033381
     7  C    0.216029
     8  C   -0.338321
     9  C   -0.034630
    10  N   -0.311153
    11  C    0.317460
    12  C   -0.352738
    13  C    0.154380
    14  H    0.135232
    15  H    0.139808
    16  H    0.119691
    17  H    0.120900
    18  H    0.156074
 Sum of Mulliken charges =  -0.00000

 Dipole moment (field-independent basis, Debye):
    X=              0.1505    Y=             -4.3601    Z=             -0.0663  Tot=              4.3632
 Quadrupole moment (field-independent basis, Debye-Ang):
   XX=            -69.6821   YY=            -70.1461   ZZ=            -73.9498
   XY=              4.5700   XZ=              0.2620   YZ=              0.0123

  Exact polarizability: 240.684   2.254 122.458   0.385  -0.187  47.432
 Approx polarizability: 533.053   9.157 295.136  -2.936  -1.559  81.142

                      1                      2                      3
                      A                      A                      A
 Frequencies --     84.5102               107.1056               140.4375
 Red. masses --      6.6100                 5.9879                 7.8092
 Frc consts  --      0.0278                 0.0405                 0.0907
 IR Inten    --      1.2460                 0.0703                 0.8301

                      4                      5                      6
                      A                      A                      A
 Frequencies --    210.1069               269.0387               311.6952
 Red. masses --      9.0667                 5.3904                 5.2210
 Frc consts  --      0.2358                 0.2299                 0.2989
 IR Inten    --     10.8847                 2.2928                12.0330

                      7                      8                      9
                      A                      A                      A
 Frequencies --    351.4181               435.9542               472.3460
 Red. masses --      5.1610                 6.3195                 5.7901
 Frc consts  --      0.3755                 0.7076                 0.7611
 IR Inten    --     26.1275                17.0880                 8.8849

                     10                     11                     12
                      A                      A                      A
 Frequencies --    531.7885               560.8083               587.7246
 Red. masses --      6.4565                 4.4016                 4.8342
 Frc consts  --      1.0758                 0.8156                 0.9838
 IR Inten    --      6.9902                 3.7498                 0.7373

                     13                     14                     15
                      A                      A                      A
 Frequencies --    598.5516               623.0421               649.7718
 Red. masses --      6.3894                 6.4656                 5.2882
 Frc consts  --      1.3487                 1.4788                 1.3155
 IR Inten    --     55.1312                25.5676                 1.5438

                     16                     17                     18
                      A                      A                      A
 Frequencies --    668.1352               704.4458               725.2524
 Red. masses --      5.7997                 2.1913                 7.3281
 Frc consts  --      1.5254                 0.6407                 2.2710
 IR Inten    --      7.6471                 1.9913                28.9364

                     19                     20                     21
                      A                      A                      A
 Frequencies --    754.0599               785.2025               824.9768
 Red. masses --      1.2824                 7.0088                 2.0859
 Frc consts  --      0.4296                 2.5460                 0.8364
 IR Inten    --     32.5038                13.0127                47.7103

                     22                     23                     24
                      A                      A                      A
 Frequencies --    851.3872               886.2956               897.1296
 Red. masses --      6.4070                 1.3269                 1.5529
 Frc consts  --      2.7363                 0.6141                 0.7364
 IR Inten    --     28.4170                 1.9657                 4.2823

                     25                     26                     27
                      A                      A                      A
 Frequencies --    944.1142               969.2054               996.5613
 Red. masses --      1.3145                 5.6865                 4.4901
 Frc consts  --      0.6903                 3.1472                 2.6273
 IR Inten    --      0.1087                33.3400                50.2161

                     28                     29                     30
                      A                      A                      A
 Frequencies --   1038.5678              1086.9650              1115.5577
 Red. masses --      2.7876                 1.4433                 1.9305
 Frc consts  --      1.7716                 1.0047                 1.4155
 IR Inten    --     12.7700                 2.5300                14.1819

                     31                     32                     33
                      A                      A                      A
 Frequencies --   1120.0030              1169.9850              1225.2006
 Red. masses --      1.8922                 2.2973                 1.8562
 Frc consts  --      1.3985                 1.8528                 1.6417
 IR Inten    --      5.7491               133.7502                22.1536

                     34                     35                     36
                      A                      A                      A
 Frequencies --   1284.0017              1331.1226              1377.2464
 Red. masses --      3.9904                 1.7203                 2.5844
 Frc consts  --      3.8761                 1.7959                 2.8882
 IR Inten    --     27.8297                15.6400                 0.2954

                     37                     38                     39
                      A                      A                      A
 Frequencies --   1419.0966              1532.2994              1547.7318
 Red. masses --      3.1388                 8.5522                 7.7041
 Frc consts  --      3.7243                11.8308                10.8734
 IR Inten    --      0.8347                71.6824                70.0379

                     40                     41                     42
                      A                      A                      A
 Frequencies --   1579.6217              1590.2566              1797.7448
 Red. masses --      8.8592                 6.6525                12.6223
 Frc consts  --     13.0242                 9.9122                24.0350
 IR Inten    --     81.6611                76.8483               342.9961

                     43                     44                     45
                      A                      A                      A
 Frequencies --   1870.1219              3212.4021              3228.0452
 Red. masses --     11.6308                 1.0903                 1.0899
 Frc consts  --     23.9661                 6.6290                 6.6916
 IR Inten    --    167.3398                 1.9606                 3.1969

                     46                     47                     48
                      A                      A                      A
 Frequencies --   3228.9489              3258.0328              3258.8343
 Red. masses --      1.0905                 1.1028                 1.0991
 Frc consts  --      6.6989                 6.8969                 6.8775
 IR Inten    --      9.7579                 0.0861                 2.6198

 - Thermochemistry -
 -------------------
 Temperature   298.150 Kelvin.  Pressure   1.00000 Atm.
 Atom     1 has atomic number  8 and mass  15.99491

 Molecular mass:   167.03711 amu.
 Principal axes and moments of inertia in atomic units:
                           1         2         3
     Eigenvalues --   768.022113157.055393923.08913
           X            0.99996   0.00847   0.00083
           Y           -0.00847   0.99996   0.00059
           Z           -0.00083  -0.00060   1.00000
 This molecule is an asymmetric top.
 Rotational symmetry number  1.
 Warning -- assumption of classical behavior for rotation
           may cause significant error
 Rotational temperatures (Kelvin)      0.11278     0.02744     0.02208
 Rotational constants (GHZ):           2.34986     0.57165     0.46003
 Zero-point vibrational energy     324264.9 (Joules/Mol)
                                   77.50116 (Kcal/Mol)
 Warning -- explicit consideration of  13 degrees of freedom as
           vibrations may cause significant error
 Vibrational temperatures:    121.59   154.10   202.06   302.30   387.09
          (Kelvin)            448.46   505.61   627.24   679.60   765.13
                              806.88   845.60   861.18   896.42   934.88
                              961.30  1013.54  1043.48  1084.92  1129.73
                             1186.96  1224.96  1275.18  1290.77  1358.37
                             1394.47  1433.83  1494.27  1563.90  1605.04
                             1611.43  1683.35  1762.79  1847.39  1915.19
                             1981.55  2041.76  2204.64  2226.84  2272.72
                             2288.02  2586.55  2690.69  4621.93  4644.44
                             4645.74  4687.58  4688.74

 Zero-point correction=                           0.123506 (Hartree/Particle)
 Thermal correction to Energy=                    0.132852
 Thermal correction to Enthalpy=                  0.133796
 Thermal correction to Gibbs Free Energy=         0.088585
 Sum of electronic and zero-point Energies=           -551.907356
 Sum of electronic and thermal Energies=              -551.898010
 Sum of electronic and thermal Enthalpies=            -551.897066
 Sum of electronic and thermal Free Energies=         -551.942277

                     E (Thermal)             CV                S
                      KCal/Mol        Cal/Mol-Kelvin    Cal/Mol-Kelvin
 Total                   83.366             37.261             95.155
 Electronic               0.000              0.000              0.000
 Translational            0.889              2.981             41.247
 Rotational               0.889              2.981             30.632
 Vibrational             81.588             31.299             23.276
 Vibration     1          0.601              1.960              3.783
 Vibration     2          0.606              1.944              3.321
 Vibration     3          0.615              1.913              2.798
 Vibration     4          0.642              1.825              2.043
 Vibration     5          0.673              1.730              1.602
 Vibration     6          0.700              1.651              1.353
 Vibration     7          0.728              1.572              1.160
 Vibration     8          0.796              1.392              0.839
 Vibration     9          0.829              1.311              0.731
 Vibration    10          0.887              1.180              0.583
 Vibration    11          0.916              1.116              0.522
 Vibration    12          0.945              1.058              0.471
 Vibration    13          0.957              1.035              0.452

                           ! Non-Optimized Parameters !
 Normal termination of Gaussian 16 at Sat May 20 05:10:58 2023.
