 Gaussian 16, Revision A.03,
 Gaussian 16:  ES64L-G16RevA.03 25-Dec-2016

 -----------------------------
 # opt freq b3lyp/6-31g(2df,p)
 -----------------------------

 -------------------
 Title Card Required
 -------------------
 Symbolic Z-matrix:
 Charge =  0 Multiplicity = 2

 SCF Done:  E(UB3LYP) =  -702.383961049     A.U. after   42 cycles
 SCF Done:  E(UB3LYP) =  -702.400671857     A.U. after   27 cycles
 SCF Done:  E(UB3LYP) =  -702.403746032     A.U. after   23 cycles
 SCF Done:  E(UB3LYP) =  -702.407081716     A.U. after   21 cycles
 SCF Done:  E(UB3LYP) =  -702.409646279     A.U. after   23 cycles
 SCF Done:  E(UB3LYP) =  -702.414734185     A.U. after   23 cycles
 SCF Done:  E(UB3LYP) =  -702.418420960     A.U. after   22 cycles
 SCF Done:  E(UB3LYP) =  -702.421028413     A.U. after   25 cycles
 SCF Done:  E(UB3LYP) =  -702.424388802     A.U. after   23 cycles
 SCF Done:  E(UB3LYP) =  -702.425015682     A.U. after   21 cycles
 SCF Done:  E(UB3LYP) =  -702.425258210     A.U. after   22 cycles
 SCF Done:  E(UB3LYP) =  -702.425588968     A.U. after   21 cycles
 SCF Done:  E(UB3LYP) =  -702.425666117     A.U. after   18 cycles
 SCF Done:  E(UB3LYP) =  -702.425684723     A.U. after   18 cycles
 SCF Done:  E(UB3LYP) =  -702.425686999     A.U. after   16 cycles
 SCF Done:  E(UB3LYP) =  -702.425687681     A.U. after   12 cycles
 Optimization completed.
    -- Stationary point found.
 Normal termination of Gaussian 16 at Mon May 15 19:51:18 2023.

 ----------------------------------------------------------------------
 #N Geom=AllCheck Guess=TCheck SCRF=Check GenChk UB3LYP/6-31G(2df,p) Fr
 eq
 ----------------------------------------------------------------------

 Structure from the checkpoint file:  "OdC1[C]2[C]CqdSrCdC21.chk"
 -------------------
 Title Card Required
 -------------------
 Charge =  0 Multiplicity = 2

                         Standard orientation:
 ---------------------------------------------------------------------
 Center     Atomic      Atomic             Coordinates (Angstroms)
 Number     Number       Type             X           Y           Z
 ---------------------------------------------------------------------
      1          8           0        3.255064   -0.004497    0.000091
      2          6           0        2.060130   -0.046575   -0.000056
      3          6           0        1.120601   -1.197003   -0.000065
      4          6           0       -0.115524   -1.155682    0.000008
      5          6           0       -1.047985   -0.062497   -0.000014
      6         16           0       -2.675458   -0.074875    0.000024
      7          6           0       -0.212542    1.194811   -0.000012
      8          6           0        1.113962    1.116039   -0.000046
      9          1           0       -0.745031    2.139423   -0.000005
 ---------------------------------------------------------------------

 SCF Done:  E(UB3LYP) =  -702.425687681     A.U. after    1 cycles

 The electronic state is 2-A.
 Alpha  occ. eigenvalues --  -88.90276 -19.18318 -10.33938 -10.31199 -10.26769
 Alpha  occ. eigenvalues --  -10.25231 -10.24062 -10.23074  -7.96737  -5.93106
 Alpha  occ. eigenvalues --   -5.92990  -5.92214  -1.09362  -0.90981  -0.81839
 Alpha  occ. eigenvalues --   -0.78768  -0.71006  -0.61994  -0.59699  -0.52463
 Alpha  occ. eigenvalues --   -0.50141  -0.46697  -0.46040  -0.43469  -0.40262
 Alpha  occ. eigenvalues --   -0.32570  -0.31479  -0.30654  -0.30430  -0.28967
 Alpha  occ. eigenvalues --   -0.26023
 Alpha virt. eigenvalues --   -0.16319  -0.09257  -0.03711  -0.01194   0.06509
 Alpha virt. eigenvalues --    0.12222   0.12831   0.17224   0.19048   0.19918
 Alpha virt. eigenvalues --    0.23889   0.28255   0.30189   0.30975   0.33648

  Beta  occ. eigenvalues --  -88.90289 -19.18305 -10.33888 -10.31052 -10.25386
  Beta  occ. eigenvalues --  -10.25285 -10.23500 -10.23287  -7.96750  -5.93172
  Beta  occ. eigenvalues --   -5.92993  -5.92202  -1.09301  -0.90176  -0.81497
  Beta  occ. eigenvalues --   -0.77603  -0.70395  -0.61789  -0.58428  -0.52022
  Beta  occ. eigenvalues --   -0.49379  -0.46192  -0.45770  -0.43226  -0.40090
  Beta  occ. eigenvalues --   -0.31178  -0.30889  -0.30369  -0.30287  -0.26434
  Beta virt. eigenvalues --   -0.16094  -0.14300  -0.07005  -0.03753  -0.00028
  Beta virt. eigenvalues --    0.06714   0.12465   0.13418   0.17864   0.19444
  Beta virt. eigenvalues --    0.20372   0.24176   0.28718   0.30542   0.31388

 Mulliken charges and spin densities:
               1          2
     1  O   -0.262857   0.006503
     2  C    0.353185  -0.000567
     3  C   -0.109166  -0.213206
     4  C    0.024417   0.375016
     5  C    0.179424   0.041867
     6  S   -0.180104  -0.023271
     7  C   -0.109685  -0.093259
     8  C   -0.061886   0.894147
     9  H    0.166672   0.012770
 Sum of Mulliken charges =   0.00000   1.00000

 Dipole moment (field-independent basis, Debye):
    X=             -1.3490    Y=              1.2238    Z=             -0.0002  Tot=              1.8214
 Quadrupole moment (field-independent basis, Debye-Ang):
   XX=            -61.0216   YY=            -50.4952   ZZ=            -49.5267
   XY=             -0.7687   XZ=             -0.0006   YZ=              0.0000

  Exact polarizability: 158.568   0.684  69.006  -0.001   0.000  36.576
 Approx polarizability: 413.536   9.423 128.514  -0.003   0.000  61.755

                      1                      2                      3
                      A                      A                      A
 Frequencies --     78.0793               166.2090               264.2826
 Red. masses --     13.1532                11.0431                12.1767
 Frc consts  --      0.0472                 0.1797                 0.5011
 IR Inten    --      3.1071                 0.0077                 0.3648

                      4                      5                      6
                      A                      A                      A
 Frequencies --    366.4868               373.3490               432.2036
 Red. masses --     14.3375                 7.1825                12.9715
 Frc consts  --      1.1346                 0.5899                 1.4276
 IR Inten    --      1.6775                 0.2765                 2.0943

                      7                      8                      9
                      A                      A                      A
 Frequencies --    513.8559               596.0631               644.5099
 Red. masses --      8.8363                 4.1680                11.7973
 Frc consts  --      1.3747                 0.8725                 2.8873
 IR Inten    --      3.8150                 0.4394                 0.4658

                     10                     11                     12
                      A                      A                      A
 Frequencies --    711.0965               771.0078               822.5699
 Red. masses --     11.7236                 9.0357                 8.1713
 Frc consts  --      3.4928                 3.1647                 3.2575
 IR Inten    --     14.6030                12.7624                 5.0520

                     13                     14                     15
                      A                      A                      A
 Frequencies --    869.4309               906.8073              1011.0514
 Red. masses --      1.4633                 8.5760                11.1479
 Frc consts  --      0.6517                 4.1549                 6.7141
 IR Inten    --     15.0999                87.8254                24.9541

                     16                     17                     18
                      A                      A                      A
 Frequencies --   1175.1149              1281.0499              1600.3108
 Red. masses --      1.7520                 2.9251                 9.5963
 Frc consts  --      1.4254                 2.8283                14.4798
 IR Inten    --     19.8961               147.2162                 0.1547

                     19                     20                     21
                      A                      A                      A
 Frequencies --   1800.6631              1974.8532              3202.7252
 Red. masses --     13.2391                11.9819                 1.0907
 Frc consts  --     25.2914                27.5325                 6.5917
 IR Inten    --    407.2577                17.9894                 2.0641

 - Thermochemistry -
 -------------------
 Temperature   298.150 Kelvin.  Pressure   1.00000 Atm.
 Atom     1 has atomic number  8 and mass  15.99491

 Molecular mass:   120.97481 amu.
 Principal axes and moments of inertia in atomic units:
                           1         2         3
     Eigenvalues --   250.405521762.901982013.30749
           X            0.99999  -0.00375   0.00000
           Y            0.00375   0.99999  -0.00000
           Z           -0.00000   0.00000   1.00000
 This molecule is an asymmetric top.
 Rotational symmetry number  1.
 Rotational temperatures (Kelvin)      0.34589     0.04913     0.04302
 Rotational constants (GHZ):           7.20727     1.02373     0.89641
 Zero-point vibrational energy     117005.1 (Joules/Mol)
                                   27.96488 (Kcal/Mol)
 Warning -- explicit consideration of   8 degrees of freedom as
           vibrations may cause significant error
 Vibrational temperatures:    112.34   239.14   380.24   527.29   537.17
          (Kelvin)            621.84   739.32   857.60   927.31  1023.11
                             1109.31  1183.49  1250.92  1304.69  1454.68
                             1690.73  1843.15  2302.49  2590.75  2841.37
                             4608.01

 Zero-point correction=                           0.044565 (Hartree/Particle)
 Thermal correction to Energy=                    0.051181
 Thermal correction to Enthalpy=                  0.052126
 Thermal correction to Gibbs Free Energy=         0.012382
 Sum of electronic and zero-point Energies=           -702.381123
 Sum of electronic and thermal Energies=              -702.374506
 Sum of electronic and thermal Enthalpies=            -702.373562
 Sum of electronic and thermal Free Energies=         -702.413306

                     E (Thermal)             CV                S
                      KCal/Mol        Cal/Mol-Kelvin    Cal/Mol-Kelvin
 Total                   32.117             23.206             83.647
 Electronic               0.000              0.000              1.377
 Translational            0.889              2.981             40.286
 Rotational               0.889              2.981             28.276
 Vibrational             30.339             17.244             13.708
 Vibration     1          0.599              1.964              3.939
 Vibration     2          0.624              1.884              2.478
 Vibration     3          0.671              1.738              1.633
 Vibration     4          0.739              1.541              1.094
 Vibration     5          0.745              1.527              1.066
 Vibration     6          0.793              1.400              0.851
 Vibration     7          0.869              1.219              0.624
 Vibration     8          0.954              1.040              0.456

 Optimization completed.
    -- Stationary point found.
 Normal termination of Gaussian 16 at Mon May 15 20:10:03 2023.
