 Gaussian 16, Revision A.03,
 Gaussian 16:  ES64L-G16RevA.03 25-Dec-2016

 -----------------------------
 # opt freq b3lyp/6-31g(2df,p)
 -----------------------------

 -------------------
 Title Card Required
 -------------------
 Symbolic Z-matrix:
 Charge =  0 Multiplicity = 1

 SCF Done:  E(RB3LYP) =  -1213.02350870     A.U. after   25 cycles
 SCF Done:  E(RB3LYP) =  -1213.12889899     A.U. after   19 cycles
 SCF Done:  E(RB3LYP) =  -1213.11546676     A.U. after   23 cycles
 SCF Done:  E(RB3LYP) =  -1213.14664259     A.U. after   22 cycles
 SCF Done:  E(RB3LYP) =  -1213.08374607     A.U. after   27 cycles
 SCF Done:  E(RB3LYP) =  -1213.24347948     A.U. after   19 cycles
 SCF Done:  E(RB3LYP) =  -1213.29022147     A.U. after   18 cycles
 SCF Done:  E(RB3LYP) =  -1213.32116531     A.U. after   19 cycles
 SCF Done:  E(RB3LYP) =  -1213.30697167     A.U. after   21 cycles
 SCF Done:  E(RB3LYP) =  -1213.35633582     A.U. after   17 cycles
 SCF Done:  E(RB3LYP) =  -1213.56270736     A.U. after   12 cycles
 SCF Done:  E(RB3LYP) =  -1213.56276813     A.U. after   11 cycles
 SCF Done:  E(RB3LYP) =  -1213.56279115     A.U. after   11 cycles
 SCF Done:  E(RB3LYP) =  -1213.56279182     A.U. after   12 cycles
 SCF Done:  E(RB3LYP) =  -1213.56280058     A.U. after   11 cycles
 SCF Done:  E(RB3LYP) =  -1213.56280295     A.U. after    8 cycles
 SCF Done:  E(RB3LYP) =  -1213.56280488     A.U. after    9 cycles
 SCF Done:  E(RB3LYP) =  -1213.56280521     A.U. after    8 cycles
 SCF Done:  E(RB3LYP) =  -1213.56280540     A.U. after    8 cycles
 Optimization completed.
    -- Stationary point found.

 The electronic state is 1-A.
 Alpha  occ. eigenvalues --  -88.90289 -19.22152 -19.14649 -14.42906 -14.42115
 Alpha  occ. eigenvalues --  -14.34169 -10.32934 -10.27340 -10.25691 -10.25684
 Alpha  occ. eigenvalues --  -10.25378 -10.25312 -10.22330 -10.22158 -10.20563
 Alpha  occ. eigenvalues --  -10.20393 -10.20328 -10.20307 -10.19441  -7.96561
 Alpha  occ. eigenvalues --   -5.93014  -5.92580  -5.92254  -1.13445  -1.06426
 Alpha  occ. eigenvalues --   -1.04241  -0.94817  -0.90529  -0.84681  -0.82593
 Alpha  occ. eigenvalues --   -0.82239  -0.77579  -0.76114  -0.72626  -0.71804
 Alpha  occ. eigenvalues --   -0.68180  -0.63941  -0.60220  -0.59901  -0.58150
 Alpha  occ. eigenvalues --   -0.57304  -0.55557  -0.51260  -0.50193  -0.49389
 Alpha  occ. eigenvalues --   -0.48124  -0.47963  -0.47275  -0.46804  -0.45015
 Alpha  occ. eigenvalues --   -0.44746  -0.42976  -0.41533  -0.41108  -0.40861
 Alpha  occ. eigenvalues --   -0.38864  -0.38387  -0.37664  -0.35707  -0.35117
 Alpha  occ. eigenvalues --   -0.34657  -0.34262  -0.32210  -0.31419  -0.30460
 Alpha  occ. eigenvalues --   -0.27990  -0.25698  -0.25393  -0.20744  -0.19891
 Alpha virt. eigenvalues --   -0.09347  -0.07950  -0.02812  -0.01613   0.01516
 Alpha virt. eigenvalues --    0.03849   0.04976   0.06657   0.07677   0.08020
 Alpha virt. eigenvalues --    0.08914   0.09449   0.11383   0.12528   0.13378

 Mulliken charges:
               1
     1  O   -0.354789
     2  C    0.405886
     3  C   -0.054415
     4  N   -0.182537
     5  N   -0.176514
     6  C    0.440814
     7  C   -0.005335
     8  N   -0.252455
     9  C   -0.060523
    10  S   -0.065160
    11  C   -0.180947
    12  C   -0.094956
    13  C    0.208772
    14  C   -0.164009
    15  C   -0.119586
    16  C   -0.119009
    17  C   -0.155232
    18  C    0.036821
    19  O   -0.225815
    20  H    0.158532
    21  H    0.133480
    22  H    0.129276
    23  H    0.101393
    24  H    0.093272
    25  H    0.135904
    26  H    0.095607
    27  H    0.111544
    28  H    0.159982
 Sum of Mulliken charges =  -0.00000

 Dipole moment (field-independent basis, Debye):
    X=             -0.5746    Y=              2.4979    Z=             -0.2855  Tot=              2.5790
 Quadrupole moment (field-independent basis, Debye-Ang):
   XX=           -119.0348   YY=           -104.4287   ZZ=           -116.2703
   XY=              1.9983   XZ=              2.2971   YZ=             -1.4016

 Normal termination of Gaussian 16 at Fri May 19 11:01:48 2023.

 ----------------------------------------------------------------------
 #N Geom=AllCheck Guess=TCheck SCRF=Check GenChk RB3LYP/6-31G(2df,p) Fr
 eq
 ----------------------------------------------------------------------

 Structure from the checkpoint file:  "OdC1CdNNdCdC2NdCSCdCC2dCCdCCdCO1.chk"
 -------------------
 Title Card Required
 -------------------
 Charge =  0 Multiplicity = 1

                         Standard orientation:
 ---------------------------------------------------------------------
 Center     Atomic      Atomic             Coordinates (Angstroms)
 Number     Number       Type             X           Y           Z
 ---------------------------------------------------------------------
      1          8           0        5.018420   -1.064482   -0.309101
      2          6           0        3.817687   -1.048113   -0.188100
      3          6           0        2.987926   -2.258742   -0.293164
      4          7           0        1.721756   -2.470710   -0.119916
      5          7           0        0.877205   -1.577330    0.306580
      6          6           0       -0.159289   -0.999332    0.138180
      7          6           0       -1.398659   -0.448664    0.131472
      8          7           0       -2.296571   -1.497422    0.297232
      9          6           0       -3.555985   -1.606924    0.261420
     10         16           0       -4.899843   -0.498668   -0.040680
     11          6           0       -4.213517    1.071422   -0.352277
     12          6           0       -2.960279    1.552913   -0.336211
     13          6           0       -1.641805    0.992936   -0.056527
     14          6           0       -0.635665    1.934349   -0.021082
     15          6           0        0.744504    1.747140    0.257796
     16          6           0        1.709001    2.687054    0.070441
     17          6           0        3.125233    2.451256    0.193399
     18          6           0        3.773232    1.269967    0.174403
     19          8           0        3.093957    0.084426    0.066121
     20          1           0        3.560306   -3.143650   -0.547914
     21          1           0       -3.980576   -2.595677    0.445900
     22          1           0       -5.015962    1.764863   -0.585483
     23          1           0       -2.911486    2.615476   -0.561065
     24          1           0       -0.927548    2.952627   -0.269622
     25          1           0        1.064808    0.793188    0.637090
     26          1           0        1.415697    3.690469   -0.233491
     27          1           0        3.772934    3.321637    0.236694
     28          1           0        4.849254    1.166880    0.206837
 ---------------------------------------------------------------------

 SCF Done:  E(RB3LYP) =  -1213.56280540     A.U. after    1 cycles
