 Gaussian 16, Revision A.03,
 Gaussian 16:  ES64L-G16RevA.03 25-Dec-2016

 -----------------------------
 # opt freq b3lyp/6-31g(2df,p)
 -----------------------------

 -------------------
 Title Card Required
 -------------------
 Symbolic Z-matrix:
 Charge =  0 Multiplicity = 1

 SCF Done:  E(RB3LYP) =  -1010.19727280     A.U. after   19 cycles
 SCF Done:  E(RB3LYP) =  -1010.27422429     A.U. after   15 cycles
 SCF Done:  E(RB3LYP) =  -1010.34551363     A.U. after   15 cycles
 SCF Done:  E(RB3LYP) =  -1010.37064763     A.U. after   15 cycles
 SCF Done:  E(RB3LYP) =  -1010.39172348     A.U. after   14 cycles
 SCF Done:  E(RB3LYP) =  -1010.40120952     A.U. after   15 cycles
 SCF Done:  E(RB3LYP) =  -1010.40643916     A.U. after   15 cycles
 SCF Done:  E(RB3LYP) =  -1010.40840307     A.U. after   15 cycles
 SCF Done:  E(RB3LYP) =  -1010.41208893     A.U. after   15 cycles
 SCF Done:  E(RB3LYP) =  -1010.41505358     A.U. after   15 cycles
 SCF Done:  E(RB3LYP) =  -1010.41791976     A.U. after   14 cycles
 SCF Done:  E(RB3LYP) =  -1010.41806985     A.U. after   13 cycles
 SCF Done:  E(RB3LYP) =  -1010.41819776     A.U. after   12 cycles
 SCF Done:  E(RB3LYP) =  -1010.41824441     A.U. after   11 cycles
 SCF Done:  E(RB3LYP) =  -1010.41826828     A.U. after   12 cycles
 SCF Done:  E(RB3LYP) =  -1010.41828059     A.U. after   11 cycles
 SCF Done:  E(RB3LYP) =  -1010.41828537     A.U. after    9 cycles
 SCF Done:  E(RB3LYP) =  -1010.41828676     A.U. after    8 cycles
 SCF Done:  E(RB3LYP) =  -1010.41828708     A.U. after    7 cycles
 Optimization completed.
    -- Stationary point found.

 The electronic state is 1-A.
 Alpha  occ. eigenvalues --  -19.10869 -14.40788 -14.36471 -14.36295 -10.25700
 Alpha  occ. eigenvalues --  -10.25665 -10.22792 -10.22711 -10.22269 -10.22134
 Alpha  occ. eigenvalues --  -10.22111 -10.21736 -10.21586 -10.20882 -10.20759
 Alpha  occ. eigenvalues --  -10.20674 -10.20630 -10.20578 -10.20452 -10.20409
 Alpha  occ. eigenvalues --  -10.20219 -10.19861 -10.19394 -10.18621  -1.06166
 Alpha  occ. eigenvalues --   -1.01707  -0.93371  -0.91018  -0.85089  -0.83178
 Alpha  occ. eigenvalues --   -0.82038  -0.79770  -0.79014  -0.76329  -0.75374
 Alpha  occ. eigenvalues --   -0.71870  -0.70215  -0.66734  -0.64221  -0.63105
 Alpha  occ. eigenvalues --   -0.60940  -0.60155  -0.57527  -0.57137  -0.56309
 Alpha  occ. eigenvalues --   -0.54149  -0.53183  -0.52038  -0.50635  -0.49890
 Alpha  occ. eigenvalues --   -0.48208  -0.47684  -0.46233  -0.45688  -0.44959
 Alpha  occ. eigenvalues --   -0.44407  -0.43540  -0.42191  -0.41678  -0.41190
 Alpha  occ. eigenvalues --   -0.40842  -0.40038  -0.39511  -0.39175  -0.38011
 Alpha  occ. eigenvalues --   -0.37422  -0.37178  -0.37031  -0.35658  -0.34865
 Alpha  occ. eigenvalues --   -0.34476  -0.33763  -0.33037  -0.31905  -0.29781
 Alpha  occ. eigenvalues --   -0.28487  -0.26196  -0.24189  -0.23830  -0.22776
 Alpha  occ. eigenvalues --   -0.21544  -0.20150
 Alpha virt. eigenvalues --   -0.10025  -0.08302  -0.05951  -0.04675  -0.01506
 Alpha virt. eigenvalues --    0.00278   0.01665   0.04613   0.06525   0.08558
 Alpha virt. eigenvalues --    0.08954   0.09370   0.11194   0.11524   0.12578

 Mulliken charges:
               1
     1  O   -0.349454
     2  C    0.352603
     3  C   -0.203041
     4  C   -0.065846
     5  C   -0.103333
     6  C   -0.063929
     7  C   -0.100265
     8  C   -0.142400
     9  C    0.125003
    10  C   -0.129455
    11  C   -0.281245
    12  C    0.278567
    13  C   -0.211542
    14  C   -0.204658
    15  C    0.296702
    16  C   -0.299081
    17  C    0.221678
    18  N   -0.194248
    19  N   -0.113943
    20  N   -0.148389
    21  C    0.005576
    22  C   -0.128143
    23  C   -0.043112
    24  C   -0.188781
    25  H    0.104478
    26  H    0.114160
    27  H    0.099436
    28  H    0.104408
    29  H    0.099799
    30  H    0.123849
    31  H    0.106609
    32  H    0.103657
    33  H    0.133459
    34  H    0.135383
    35  H    0.118471
    36  H    0.117780
    37  H    0.107051
    38  H    0.104377
    39  H    0.117817
 Sum of Mulliken charges =  -0.00000

 Dipole moment (field-independent basis, Debye):
    X=             -7.3262    Y=             -1.7747    Z=              2.0377  Tot=              7.8087
 Quadrupole moment (field-independent basis, Debye-Ang):
   XX=           -130.8599   YY=           -131.0741   ZZ=           -139.9345
   XY=              2.8352   XZ=             19.5996   YZ=              2.3547

 Normal termination of Gaussian 16 at Tue May 16 21:31:08 2023.

 ----------------------------------------------------------------------
 #N Geom=AllCheck Guess=TCheck SCRF=Check GenChk RB3LYP/6-31G(2df,p) Fr
 eq
 ----------------------------------------------------------------------

 Structure from the checkpoint file:  "Odc1ccccccc2ccc3ccc-3cc-2nnncccc1.chk"
 -------------------
 Title Card Required
 -------------------
 Charge =  0 Multiplicity = 1

                         Standard orientation:
 ---------------------------------------------------------------------
 Center     Atomic      Atomic             Coordinates (Angstroms)
 Number     Number       Type             X           Y           Z
 ---------------------------------------------------------------------
      1          8           0        6.201883   -0.139681   -1.765611
      2          6           0        5.369106   -0.185008   -0.868234
      3          6           0        4.355200   -1.243222   -0.842516
      4          6           0        3.544351   -1.498396    0.205004
      5          6           0        2.318190   -2.239740    0.115148
      6          6           0        1.295185   -1.906809    0.939799
      7          6           0       -0.094848   -1.981794    0.577276
      8          6           0       -0.917269   -0.991949    0.985869
      9          6           0       -2.232291   -0.646718    0.434201
     10          6           0       -3.165216   -1.640637    0.326864
     11          6           0       -4.545235   -1.641153   -0.089679
     12          6           0       -5.241855   -0.520648   -0.331375
     13          6           0       -6.604324   -0.056454   -0.662205
     14          6           0       -6.226196    1.253106   -0.617014
     15          6           0       -4.821657    0.895744   -0.298701
     16          6           0       -3.636527    1.488109   -0.125828
     17          6           0       -2.361619    0.795730    0.066509
     18          7           0       -1.339087    1.590057   -0.084788
     19          7           0       -0.082780    1.181194   -0.304508
     20          7           0        0.795001    1.724907    0.432356
     21          6           0        2.095504    1.384854    0.066457
     22          6           0        3.095848    1.807829    0.874472
     23          6           0        4.541325    1.663365    0.825326
     24          6           0        5.440711    0.881594    0.180408
     25          1           0        4.251808   -1.788639   -1.777502
     26          1           0        3.707947   -0.949960    1.128958
     27          1           0        2.130239   -2.820667   -0.785307
     28          1           0        1.526241   -1.281097    1.800345
     29          1           0       -0.391223   -2.648311   -0.228839
     30          1           0       -0.524813   -0.290296    1.717292
     31          1           0       -2.808719   -2.614422    0.654874
     32          1           0       -5.038526   -2.607414   -0.138851
     33          1           0       -7.536744   -0.565717   -0.862759
     34          1           0       -6.740918    2.192942   -0.761576
     35          1           0       -3.544165    2.566416   -0.204637
     36          1           0        2.242625    0.798082   -0.836486
     37          1           0        2.750294    2.410737    1.712046
     38          1           0        5.016528    2.387791    1.486798
     39          1           0        6.482118    1.148073    0.348428
 ---------------------------------------------------------------------

 SCF Done:  E(RB3LYP) =  -1010.41828708     A.U. after    1 cycles
