 Gaussian 16, Revision A.03,
 Gaussian 16:  ES64L-G16RevA.03 25-Dec-2016

 -----------------------------
 # opt freq b3lyp/6-31g(2df,p)
 -----------------------------

 -------------------
 Title Card Required
 -------------------
 Symbolic Z-matrix:
 Charge =  0 Multiplicity = 1

 SCF Done:  E(RB3LYP) =  -651.325801031     A.U. after   18 cycles
 SCF Done:  E(RB3LYP) =  -651.398824367     A.U. after   13 cycles
 SCF Done:  E(RB3LYP) =  -651.473933246     A.U. after   15 cycles
 SCF Done:  E(RB3LYP) =  -651.493629371     A.U. after   15 cycles
 SCF Done:  E(RB3LYP) =  -651.497845478     A.U. after   14 cycles
 SCF Done:  E(RB3LYP) =  -651.496407330     A.U. after   14 cycles
 SCF Done:  E(RB3LYP) =  -651.497983432     A.U. after   14 cycles
 SCF Done:  E(RB3LYP) =  -651.498331248     A.U. after   14 cycles
 SCF Done:  E(RB3LYP) =  -651.498350162     A.U. after   13 cycles
 SCF Done:  E(RB3LYP) =  -651.498445577     A.U. after   12 cycles
 SCF Done:  E(RB3LYP) =  -651.498470864     A.U. after   11 cycles
 SCF Done:  E(RB3LYP) =  -651.498511752     A.U. after   11 cycles
 SCF Done:  E(RB3LYP) =  -651.498522359     A.U. after   10 cycles
 SCF Done:  E(RB3LYP) =  -651.498524064     A.U. after    8 cycles
 SCF Done:  E(RB3LYP) =  -651.498524735     A.U. after    8 cycles
 SCF Done:  E(RB3LYP) =  -651.498525189     A.U. after    8 cycles
 SCF Done:  E(RB3LYP) =  -651.498525308     A.U. after    7 cycles
 SCF Done:  E(RB3LYP) =  -651.498525382     A.U. after    7 cycles
 Optimization completed.
    -- Stationary point found.
 Normal termination of Gaussian 16 at Tue May 16 07:28:21 2023.

 ----------------------------------------------------------------------
 #N Geom=AllCheck Guess=TCheck SCRF=Check GenChk RB3LYP/6-31G(2df,p) Fr
 eq
 ----------------------------------------------------------------------

 Structure from the checkpoint file:  "OdC1CdCdCdc2cc3cccc-3ccc2dC1.chk"
 -------------------
 Title Card Required
 -------------------
 Charge =  0 Multiplicity = 1

                         Standard orientation:
 ---------------------------------------------------------------------
 Center     Atomic      Atomic             Coordinates (Angstroms)
 Number     Number       Type             X           Y           Z
 ---------------------------------------------------------------------
      1          8           0       -4.483650    1.140125   -0.000588
      2          6           0       -3.526466    0.375295   -0.000185
      3          6           0       -3.754734   -1.095270    0.000068
      4          6           0       -2.614795   -1.783837    0.000133
      5          6           0       -1.371843   -1.687731    0.000277
      6          6           0       -0.328599   -0.825862    0.000199
      7          6           0        1.017089   -1.334719    0.000156
      8          6           0        2.205861   -0.685165   -0.000120
      9          6           0        3.506553   -1.329760   -0.000276
     10          6           0        4.459382   -0.355541   -0.000295
     11          6           0        3.812965    0.942492   -0.000075
     12          6           0        2.452147    0.771847    0.000041
     13          6           0        1.466341    1.798548    0.000245
     14          6           0        0.112557    1.717450    0.000281
     15          6           0       -0.804694    0.584522    0.000172
     16          6           0       -2.150108    0.952505    0.000084
     17          1           0       -4.771955   -1.466144    0.000097
     18          1           0        1.057856   -2.421520    0.000252
     19          1           0        3.658763   -2.399878   -0.000401
     20          1           0        5.530576   -0.508425   -0.000444
     21          1           0        4.327419    1.894668    0.000023
     22          1           0        1.872629    2.808284    0.000400
     23          1           0       -0.402821    2.672878    0.000449
     24          1           0       -2.293209    2.030485    0.000097
 ---------------------------------------------------------------------

 SCF Done:  E(RB3LYP) =  -651.498525382     A.U. after    1 cycles

 The electronic state is 1-A.
 Alpha  occ. eigenvalues --  -19.10526 -10.26794 -10.25037 -10.23980 -10.23280
 Alpha  occ. eigenvalues --  -10.22794 -10.22208 -10.21836 -10.21526 -10.20782
 Alpha  occ. eigenvalues --  -10.20751 -10.20130 -10.20020 -10.20013 -10.19663
 Alpha  occ. eigenvalues --  -10.19224  -1.01859  -0.89385  -0.87258  -0.82435
 Alpha  occ. eigenvalues --   -0.80908  -0.77319  -0.75438  -0.71294  -0.68858
 Alpha  occ. eigenvalues --   -0.64975  -0.63857  -0.57845  -0.56971  -0.55450
 Alpha  occ. eigenvalues --   -0.52927  -0.52728  -0.49369  -0.48296  -0.46517
 Alpha  occ. eigenvalues --   -0.44025  -0.42967  -0.42274  -0.40641  -0.40108
 Alpha  occ. eigenvalues --   -0.39740  -0.39176  -0.37644  -0.37238  -0.36724
 Alpha  occ. eigenvalues --   -0.34903  -0.34021  -0.30949  -0.29182  -0.27026
 Alpha  occ. eigenvalues --   -0.24103  -0.23353  -0.20411
 Alpha virt. eigenvalues --   -0.11978  -0.06728  -0.05275  -0.04707   0.02494
 Alpha virt. eigenvalues --    0.07205   0.08633   0.10390   0.11990   0.12740
 Alpha virt. eigenvalues --    0.12816   0.13671   0.13956   0.15773   0.15939

 Mulliken charges:
               1
     1  O   -0.368232
     2  C    0.339345
     3  C   -0.293341
     4  C    0.038615
     5  C    0.079992
     6  C    0.047262
     7  C   -0.211805
     8  C    0.193440
     9  C   -0.192211
    10  C   -0.108568
    11  C   -0.215601
    12  C    0.171140
    13  C   -0.159757
    14  C   -0.140965
    15  C    0.131849
    16  C   -0.215570
    17  H    0.147028
    18  H    0.112182
    19  H    0.106532
    20  H    0.110628
    21  H    0.107278
    22  H    0.099974
    23  H    0.105146
    24  H    0.115640
 Sum of Mulliken charges =  -0.00000

 Dipole moment (field-independent basis, Debye):
    X=              3.9243    Y=             -1.5988    Z=              0.0010  Tot=              4.2375
 Quadrupole moment (field-independent basis, Debye-Ang):
   XX=            -96.2616   YY=            -83.3468   ZZ=            -92.4828
   XY=              9.8429   XZ=             -0.0051   YZ=              0.0023

  Exact polarizability: 385.362   7.975 160.324  -0.005   0.000  58.931
 Approx polarizability: 887.481  17.836 306.126  -0.009  -0.008 102.455

                      1                      2                      3
                      A                      A                      A
 Frequencies --     46.1146                74.7983               144.8803
 Red. masses --      7.5119                 4.8893                 5.1441
 Frc consts  --      0.0094                 0.0161                 0.0636
 IR Inten    --      1.6836                 1.2519                 3.5289

                      4                      5                      6
                      A                      A                      A
 Frequencies --    175.4057               205.1952               237.2740
 Red. masses --      4.4074                 6.9663                 4.0989
 Frc consts  --      0.0799                 0.1728                 0.1360
 IR Inten    --      0.0165                 1.3264                 0.5461

                      7                      8                      9
                      A                      A                      A
 Frequencies --    285.5257               289.7339               318.9534
 Red. masses --      7.8129                 4.0173                 6.2099
 Frc consts  --      0.3753                 0.1987                 0.3722
 IR Inten    --      0.9393                 2.9599                 2.4715

                     10                     11                     12
                      A                      A                      A
 Frequencies --    373.4562               408.2540               463.2847
 Red. masses --      8.9567                 3.1995                 6.6114
 Frc consts  --      0.7360                 0.3142                 0.8361
 IR Inten    --      6.8358                 5.0917                 7.4075

                     13                     14                     15
                      A                      A                      A
 Frequencies --    468.0468               487.9273               532.1922
 Red. masses --      4.3666                 8.6076                 5.7080
 Frc consts  --      0.5636                 1.2074                 0.9525
 IR Inten    --      0.3565                 0.4326                 0.1466

                     16                     17                     18
                      A                      A                      A
 Frequencies --    557.6229               579.0805               594.8548
 Red. masses --      6.4018                 3.1263                 8.6568
 Frc consts  --      1.1728                 0.6177                 1.8048
 IR Inten    --     73.1380                 0.4424                 4.1148

                     19                     20                     21
                      A                      A                      A
 Frequencies --    617.0631               633.8042               712.3501
 Red. masses --      6.4105                 2.4465                 2.5580
 Frc consts  --      1.4381                 0.5790                 0.7648
 IR Inten    --      6.4776                 0.1686                 0.0456

                     22                     23                     24
                      A                      A                      A
 Frequencies --    722.7657               752.5688               789.0185
 Red. masses --      2.1048                 6.0260                 2.0978
 Frc consts  --      0.6478                 2.0108                 0.7695
 IR Inten    --     13.2496                 3.2764                23.9653

                     25                     26                     27
                      A                      A                      A
 Frequencies --    790.4228               801.8573               817.4135
 Red. masses --      4.8789                 4.7340                 1.4887
 Frc consts  --      1.7960                 1.7934                 0.5861
 IR Inten    --     14.5375                 4.1591                 0.0104

                     28                     29                     30
                      A                      A                      A
 Frequencies --    823.8090               870.0220               884.3794
 Red. masses --      6.0328                 1.5647                 4.5985
 Frc consts  --      2.4122                 0.6978                 2.1191
 IR Inten    --      7.8160                17.2339                34.5802

                     31                     32                     33
                      A                      A                      A
 Frequencies --    892.8454               930.9181               951.4543
 Red. masses --      1.6296                 1.3540                 1.5387
 Frc consts  --      0.7654                 0.6913                 0.8207
 IR Inten    --      9.5319                 0.0819                19.8172

                     34                     35                     36
                      A                      A                      A
 Frequencies --    961.7093              1000.1240              1022.9687
 Red. masses --      1.4518                 1.3030                 1.6822
 Frc consts  --      0.7911                 0.7679                 1.0372
 IR Inten    --     10.1291                 0.2270                 0.7872

                     37                     38                     39
                      A                      A                      A
 Frequencies --   1069.3925              1098.3246              1119.2432
 Red. masses --      2.7992                 1.7676                 2.0533
 Frc consts  --      1.8861                 1.2563                 1.5155
 IR Inten    --      2.0737                 5.8817                25.9878

                     40                     41                     42
                      A                      A                      A
 Frequencies --   1164.8036              1190.3412              1240.9398
 Red. masses --      3.8811                 2.4998                 1.5672
 Frc consts  --      3.1025                 2.0869                 1.4220
 IR Inten    --      5.1362                 3.1248                 3.7295

                     43                     44                     45
                      A                      A                      A
 Frequencies --   1269.7310              1290.3618              1303.4302
 Red. masses --      1.6123                 3.3369                 1.8316
 Frc consts  --      1.5315                 3.2736                 1.8334
 IR Inten    --      7.5850                13.0281                16.1094

                     46                     47                     48
                      A                      A                      A
 Frequencies --   1344.5443              1381.5473              1401.0102
 Red. masses --      2.1000                 2.1378                 2.0618
 Frc consts  --      2.2367                 2.4041                 2.3845
 IR Inten    --     13.1556                33.0819                 3.8570

                     49                     50                     51
                      A                      A                      A
 Frequencies --   1422.7151              1457.0150              1476.9359
 Red. masses --      1.9726                 2.4877                 2.2756
 Frc consts  --      2.3525                 3.1115                 2.9246
 IR Inten    --     16.3954                20.4549                15.0742

                     52                     53                     54
                      A                      A                      A
 Frequencies --   1521.0071              1580.4472              1597.4984
 Red. masses --      3.7699                 6.7491                 5.9156
 Frc consts  --      5.1386                 9.9325                 8.8947
 IR Inten    --     32.1134                 1.8403                21.7483

                     55                     56                     57
                      A                      A                      A
 Frequencies --   1648.4364              1672.4303              1691.0199
 Red. masses --      7.0887                 8.1519                 9.2741
 Frc consts  --     11.3492                13.4340                15.6250
 IR Inten    --    137.3625                24.7443               475.0391

                     58                     59                     60
                      A                      A                      A
 Frequencies --   2119.7664              3139.8633              3154.2786
 Red. masses --     11.5224                 1.0847                 1.0867
 Frc consts  --     30.5048                 6.3004                 6.3705
 IR Inten    --      9.4607                 8.4647                 0.7590

                     61                     62                     63
                      A                      A                      A
 Frequencies --   3155.4934              3173.9746              3212.6728
 Red. masses --      1.0881                 1.0882                 1.0884
 Frc consts  --      6.3831                 6.4592                 6.6189
 IR Inten    --      5.3396                11.4084                 6.0718

                     64                     65                     66
                      A                      A                      A
 Frequencies --   3216.0291              3224.0369              3241.2158
 Red. masses --      1.0940                 1.0925                 1.1039
 Frc consts  --      6.6664                 6.6909                 6.8328
 IR Inten    --      0.9694                 7.9519                12.9262

 - Thermochemistry -
 -------------------
 Temperature   298.150 Kelvin.  Pressure   1.00000 Atm.
 Atom     1 has atomic number  8 and mass  15.99491

 Molecular mass:   204.05751 amu.
 Principal axes and moments of inertia in atomic units:
                           1         2         3
     Eigenvalues --  1111.360415837.148496948.50881
           X            1.00000   0.00049  -0.00000
           Y           -0.00049   1.00000   0.00001
           Z            0.00000  -0.00001   1.00000
 This molecule is an asymmetric top.
 Rotational symmetry number  1.
 Warning -- assumption of classical behavior for rotation
           may cause significant error
 Rotational temperatures (Kelvin)      0.07794     0.01484     0.01247
 Rotational constants (GHZ):           1.62390     0.30918     0.25973
 Zero-point vibrational energy     465327.0 (Joules/Mol)
                                  111.21582 (Kcal/Mol)
 Warning -- explicit consideration of  19 degrees of freedom as
           vibrations may cause significant error
 Vibrational temperatures:     66.35   107.62   208.45   252.37   295.23
          (Kelvin)            341.38   410.81   416.86   458.90   537.32
                              587.39   666.56   673.41   702.02   765.71
                              802.30   833.17   855.86   887.82   911.90
                             1024.91  1039.90  1082.78  1135.22  1137.24
                             1153.69  1176.08  1185.28  1251.77  1272.42
                             1284.61  1339.38  1368.93  1383.69  1438.96
                             1471.82  1538.62  1580.24  1610.34  1675.89
                             1712.64  1785.44  1826.86  1856.54  1875.35
                             1934.50  1987.74  2015.74  2046.97  2096.32
                             2124.98  2188.39  2273.91  2298.44  2371.73
                             2406.25  2433.00  3049.87  4517.56  4538.30
                             4540.05  4566.64  4622.32  4627.15  4638.67
                             4663.39

 Zero-point correction=                           0.177234 (Hartree/Particle)
 Thermal correction to Energy=                    0.188952
 Thermal correction to Enthalpy=                  0.189896
 Thermal correction to Gibbs Free Energy=         0.139169
 Sum of electronic and zero-point Energies=           -651.321292
 Sum of electronic and thermal Energies=              -651.309573
 Sum of electronic and thermal Enthalpies=            -651.308629
 Sum of electronic and thermal Free Energies=         -651.359357

                     E (Thermal)             CV                S
                      KCal/Mol        Cal/Mol-Kelvin    Cal/Mol-Kelvin
 Total                  118.569             47.637            106.765
 Electronic               0.000              0.000              0.000
 Translational            0.889              2.981             41.844
 Rotational               0.889              2.981             32.178
 Vibrational            116.792             41.675             32.743
 Vibration     1          0.595              1.979              4.977
 Vibration     2          0.599              1.966              4.023
 Vibration     3          0.616              1.908              2.738
 Vibration     4          0.627              1.873              2.377
 Vibration     5          0.640              1.832              2.086
 Vibration     6          0.656              1.784              1.823
 Vibration     7          0.683              1.701              1.500
 Vibration     8          0.686              1.693              1.476
 Vibration     9          0.705              1.637              1.315
 Vibration    10          0.745              1.527              1.066
 Vibration    11          0.773              1.452              0.933
 Vibration    12          0.821              1.331              0.757
 Vibration    13          0.825              1.321              0.743
 Vibration    14          0.844              1.277              0.689
 Vibration    15          0.887              1.179              0.582
 Vibration    16          0.913              1.123              0.529
 Vibration    17          0.936              1.077              0.487
 Vibration    18          0.953              1.043              0.459
 Vibration    19          0.977              0.996              0.421

 Optimization completed.
    -- Stationary point found.
 Normal termination of Gaussian 16 at Tue May 16 09:11:28 2023.
