 Gaussian 16, Revision A.03,
 Gaussian 16:  ES64L-G16RevA.03 25-Dec-2016

 -----------------------------
 # opt freq b3lyp/6-31g(2df,p)
 -----------------------------

 -------------------
 Title Card Required
 -------------------
 Symbolic Z-matrix:
 Charge =  0 Multiplicity = 1

 SCF Done:  E(RB3LYP) =  -1414.77907701     A.U. after   18 cycles
 SCF Done:  E(RB3LYP) =  -1414.83487930     A.U. after   15 cycles
 SCF Done:  E(RB3LYP) =  -1414.86177602     A.U. after   17 cycles
 SCF Done:  E(RB3LYP) =  -1414.86348020     A.U. after   14 cycles
 SCF Done:  E(RB3LYP) =  -1414.86917247     A.U. after   14 cycles
 SCF Done:  E(RB3LYP) =  -1414.87225004     A.U. after   14 cycles
 SCF Done:  E(RB3LYP) =  -1414.87562193     A.U. after   15 cycles
 SCF Done:  E(RB3LYP) =  -1414.87681257     A.U. after   14 cycles
 SCF Done:  E(RB3LYP) =  -1414.87738190     A.U. after   15 cycles
 SCF Done:  E(RB3LYP) =  -1414.87821134     A.U. after   14 cycles
 SCF Done:  E(RB3LYP) =  -1414.87835712     A.U. after   13 cycles
 SCF Done:  E(RB3LYP) =  -1414.87841660     A.U. after   12 cycles
 SCF Done:  E(RB3LYP) =  -1414.87843175     A.U. after   10 cycles
 SCF Done:  E(RB3LYP) =  -1414.87843949     A.U. after   11 cycles
 SCF Done:  E(RB3LYP) =  -1414.87844477     A.U. after   10 cycles
 SCF Done:  E(RB3LYP) =  -1414.87844589     A.U. after    9 cycles
 SCF Done:  E(RB3LYP) =  -1414.87844614     A.U. after    8 cycles
 Optimization completed.
    -- Stationary point found.
 Normal termination of Gaussian 16 at Tue May 16 14:56:04 2023.

 ----------------------------------------------------------------------
 #N Geom=AllCheck Guess=TCheck SCRF=Check GenChk RB3LYP/6-31G(2df,p) Fr
 eq
 ----------------------------------------------------------------------

 Structure from the checkpoint file:  "OdC1NdS2CdCC2dCCdCNdNNdNS1.chk"
 -------------------
 Title Card Required
 -------------------
 Charge =  0 Multiplicity = 1

                         Standard orientation:
 ---------------------------------------------------------------------
 Center     Atomic      Atomic             Coordinates (Angstroms)
 Number     Number       Type             X           Y           Z
 ---------------------------------------------------------------------
      1          8           0       -1.044194    3.024839    0.497928
      2          6           0       -0.436116    2.099271    0.019752
      3          7           0       -0.830679    0.849556   -0.343547
      4         16           0       -1.988287    0.164606    0.556178
      5          6           0       -3.549318   -0.226985   -0.302523
      6          6           0       -3.267606   -1.536807   -0.454686
      7          6           0       -1.892889   -1.583348    0.009160
      8          6           0       -0.790127   -2.332149   -0.135879
      9          6           0        0.512539   -1.878097    0.287449
     10          6           0        1.677897   -2.356881   -0.186578
     11          7           0        2.944013   -1.995798    0.306619
     12          7           0        3.436013   -0.860747    0.343796
     13          7           0        2.834647    0.236861   -0.365625
     14          7           0        1.886071    0.761027    0.224375
     15         16           0        1.351613    2.287335   -0.475387
     16          1           0       -4.394338    0.414491   -0.500228
     17          1           0       -3.890073   -2.352745   -0.804146
     18          1           0       -0.870351   -3.270046   -0.682498
     19          1           0        0.554967   -1.057811    0.990168
     20          1           0        1.723415   -3.209980   -0.858869
 ---------------------------------------------------------------------

 SCF Done:  E(RB3LYP) =  -1414.87844614     A.U. after    1 cycles

 The electronic state is 1-A.
 Alpha  occ. eigenvalues --  -89.00763 -88.90120 -19.12849 -14.43161 -14.42013
 Alpha  occ. eigenvalues --  -14.41733 -14.40897 -14.33604 -10.30632 -10.25889
 Alpha  occ. eigenvalues --  -10.25852 -10.25707 -10.25065 -10.24116 -10.22376
 Alpha  occ. eigenvalues --   -8.05694  -7.96279  -6.02052  -6.01970  -6.01544
 Alpha  occ. eigenvalues --   -5.92810  -5.92376  -5.91809  -1.10322  -1.05152
 Alpha  occ. eigenvalues --   -1.02335  -0.96293  -0.88961  -0.85248  -0.80972
 Alpha  occ. eigenvalues --   -0.77852  -0.73475  -0.70345  -0.66594  -0.63035
 Alpha  occ. eigenvalues --   -0.58925  -0.56713  -0.53227  -0.52073  -0.51214
 Alpha  occ. eigenvalues --   -0.50707  -0.48908  -0.47324  -0.45451  -0.45195
 Alpha  occ. eigenvalues --   -0.44147  -0.42823  -0.42142  -0.40718  -0.39076
 Alpha  occ. eigenvalues --   -0.38108  -0.36859  -0.35297  -0.34037  -0.30808
 Alpha  occ. eigenvalues --   -0.28527  -0.26615  -0.26288  -0.25713  -0.23509
 Alpha  occ. eigenvalues --   -0.22939
 Alpha virt. eigenvalues --   -0.10201  -0.06563  -0.05738  -0.04340  -0.02091
 Alpha virt. eigenvalues --   -0.00688   0.01612   0.03548   0.04966   0.06691
 Alpha virt. eigenvalues --    0.08867   0.09798   0.11141   0.12322   0.12887

 Mulliken charges:
               1
     1  O   -0.337499
     2  C    0.334160
     3  N   -0.313718
     4  S    0.243491
     5  C   -0.161645
     6  C   -0.137717
     7  C    0.206162
     8  C   -0.199968
     9  C   -0.050069
    10  C   -0.029997
    11  N   -0.075088
    12  N   -0.038734
    13  N   -0.068371
    14  N   -0.083784
    15  S   -0.004350
    16  H    0.166191
    17  H    0.149865
    18  H    0.126714
    19  H    0.142718
    20  H    0.131638
 Sum of Mulliken charges =  -0.00000

 Dipole moment (field-independent basis, Debye):
    X=             -5.7297    Y=             -5.4846    Z=             -1.2006  Tot=              8.0220
 Quadrupole moment (field-independent basis, Debye-Ang):
   XX=            -91.6792   YY=            -99.0889   ZZ=            -99.0182
   XY=              7.5670   XZ=              1.1465   YZ=              2.3853

  Exact polarizability: 233.615 -10.596 185.001   0.946   5.348  79.131
 Approx polarizability: 460.036 -57.990 339.056  -7.546   8.552 148.965

                      1                      2                      3
                      A                      A                      A
 Frequencies --     54.3181                80.0838                99.3897
 Red. masses --     15.7676                 7.1676                 9.5425
 Frc consts  --      0.0274                 0.0271                 0.0555
 IR Inten    --      1.9963                 0.0204                 1.6602

                      4                      5                      6
                      A                      A                      A
 Frequencies --    109.9144               139.0148               171.2868
 Red. masses --      6.7072                 9.1839                 6.1820
 Frc consts  --      0.0477                 0.1046                 0.1069
 IR Inten    --      0.7533                 2.2843                 2.2535

                      7                      8                      9
                      A                      A                      A
 Frequencies --    185.5588               204.3735               224.4285
 Red. masses --      6.0883                 8.6140                 4.8920
 Frc consts  --      0.1235                 0.2120                 0.1452
 IR Inten    --      3.5189                 2.9784                 2.9173

                     10                     11                     12
                      A                      A                      A
 Frequencies --    281.1222               285.4312               312.0272
 Red. masses --      5.0032                 5.1339                 7.0907
 Frc consts  --      0.2330                 0.2464                 0.4067
 IR Inten    --      7.1280                 7.5793                 2.9179

                     13                     14                     15
                      A                      A                      A
 Frequencies --    331.0865               334.8872               382.4873
 Red. masses --      6.6737                 6.5889                 4.5591
 Frc consts  --      0.4310                 0.4354                 0.3930
 IR Inten    --      1.3978                 1.6076                 0.5166

                     16                     17                     18
                      A                      A                      A
 Frequencies --    404.8805               426.3976               495.1402
 Red. masses --     10.6501                 7.3886                 6.9510
 Frc consts  --      1.0286                 0.7915                 1.0041
 IR Inten    --      5.0526                 6.6105                 0.5396

                     19                     20                     21
                      A                      A                      A
 Frequencies --    571.3560               580.6901               622.2820
 Red. masses --      5.9278                 6.5917                 6.7880
 Frc consts  --      1.1401                 1.3096                 1.5487
 IR Inten    --      3.7370                14.8314                28.2732

                     22                     23                     24
                      A                      A                      A
 Frequencies --    638.7759               657.8687               668.1730
 Red. masses --      9.5205                 6.3482                12.3589
 Frc consts  --      2.2888                 1.6188                 3.2509
 IR Inten    --     19.9107                 9.5286                16.1827

                     25                     26                     27
                      A                      A                      A
 Frequencies --    708.8338               756.7855               777.0166
 Red. masses --      5.8514                 1.5358                 3.7258
 Frc consts  --      1.7322                 0.5182                 1.3253
 IR Inten    --    124.9255                22.0616                23.8038

                     28                     29                     30
                      A                      A                      A
 Frequencies --    793.0778               850.3962               867.9689
 Red. masses --      8.9019                 9.3604                 2.7420
 Frc consts  --      3.2989                 3.9883                 1.2171
 IR Inten    --     41.7848                42.7575                 9.3713

                     31                     32                     33
                      A                      A                      A
 Frequencies --    888.4821               907.8542               951.6225
 Red. masses --      2.4868                 2.1747                 1.4032
 Frc consts  --      1.1566                 1.0560                 0.7487
 IR Inten    --     21.1672                 4.6666                 3.1903

                     34                     35                     36
                      A                      A                      A
 Frequencies --    979.2121              1004.3672              1043.8668
 Red. masses --      1.4846                 2.1981                 1.3673
 Frc consts  --      0.8387                 1.3064                 0.8778
 IR Inten    --     53.2111                17.3900                 5.2241

                     37                     38                     39
                      A                      A                      A
 Frequencies --   1090.2539              1169.8224              1179.7616
 Red. masses --      2.0235                 9.2289                 3.2449
 Frc consts  --      1.4171                 7.4411                 2.6610
 IR Inten    --     27.6528               240.8307                79.6274

                     40                     41                     42
                      A                      A                      A
 Frequencies --   1256.6701              1265.5370              1334.4410
 Red. masses --      1.4490                 1.5961                 1.3272
 Frc consts  --      1.3482                 1.5061                 1.3925
 IR Inten    --      2.8668                 2.1812                20.6906

                     43                     44                     45
                      A                      A                      A
 Frequencies --   1360.9027              1530.6632              1548.8322
 Red. masses --      1.4481                13.0711                 5.9280
 Frc consts  --      1.5802                18.0435                 8.3786
 IR Inten    --      6.3058                65.1268                14.4681

                     46                     47                     48
                      A                      A                      A
 Frequencies --   1605.4657              1646.1466              1697.6763
 Red. masses --     12.8055                 5.2581                 8.2488
 Frc consts  --     19.4468                 8.3949                14.0072
 IR Inten    --      6.0441                38.8749                23.7656

                     49                     50                     51
                      A                      A                      A
 Frequencies --   1771.1241              3149.2928              3168.1967
 Red. masses --     13.1540                 1.0885                 1.0893
 Frc consts  --     24.3111                 6.3605                 6.4420
 IR Inten    --    495.0017                 4.6801                 4.7602

                     52                     53                     54
                      A                      A                      A
 Frequencies --   3200.5754              3230.7897              3269.0538
 Red. masses --      1.0929                 1.0884                 1.1055
 Frc consts  --      6.5961                 6.6937                 6.9606
 IR Inten    --      7.9753                 1.4207                 8.0041

 - Thermochemistry -
 -------------------
 Temperature   298.150 Kelvin.  Pressure   1.00000 Atm.
 Atom     1 has atomic number  8 and mass  15.99491

 Molecular mass:   238.99355 amu.
 Principal axes and moments of inertia in atomic units:
                           1         2         3
     Eigenvalues --  2678.342143946.415186363.94255
           X            0.99991   0.01221   0.00483
           Y           -0.01225   0.99989   0.00836
           Z           -0.00473  -0.00842   0.99995
 This molecule is an asymmetric top.
 Rotational symmetry number  1.
 Warning -- assumption of classical behavior for rotation
           may cause significant error
 Rotational temperatures (Kelvin)      0.03234     0.02195     0.01361
 Rotational constants (GHZ):           0.67383     0.45731     0.28359
 Zero-point vibrational energy     318599.4 (Joules/Mol)
                                   76.14709 (Kcal/Mol)
 Warning -- explicit consideration of  20 degrees of freedom as
           vibrations may cause significant error
 Vibrational temperatures:     78.15   115.22   143.00   158.14   200.01
          (Kelvin)            246.44   266.98   294.05   322.90   404.47
                              410.67   448.94   476.36   481.83   550.31
                              582.53   613.49   712.40   822.05   835.48
                              895.33   919.06   946.53   961.35  1019.85
                             1088.85  1117.95  1141.06  1223.53  1248.81
                             1278.33  1306.20  1369.17  1408.87  1445.06
                             1501.89  1568.63  1683.11  1697.41  1808.07
                             1820.83  1919.96  1958.04  2202.28  2228.42
                             2309.91  2368.44  2442.58  2548.25  4531.13
                             4558.33  4604.91  4648.39  4703.44

 Zero-point correction=                           0.121348 (Hartree/Particle)
 Thermal correction to Energy=                    0.135126
 Thermal correction to Enthalpy=                  0.136070
 Thermal correction to Gibbs Free Energy=         0.080547
 Sum of electronic and zero-point Energies=          -1414.757098
 Sum of electronic and thermal Energies=             -1414.743320
 Sum of electronic and thermal Enthalpies=           -1414.742376
 Sum of electronic and thermal Free Energies=        -1414.797899

                     E (Thermal)             CV                S
                      KCal/Mol        Cal/Mol-Kelvin    Cal/Mol-Kelvin
 Total                   84.793             51.067            116.859
 Electronic               0.000              0.000              0.000
 Translational            0.889              2.981             42.315
 Rotational               0.889              2.981             32.575
 Vibrational             83.016             45.106             41.969
 Vibration     1          0.596              1.976              4.654
 Vibration     2          0.600              1.963              3.889
 Vibration     3          0.604              1.950              3.466
 Vibration     4          0.606              1.941              3.270
 Vibration     5          0.615              1.914              2.817
 Vibration     6          0.626              1.878              2.421
 Vibration     7          0.632              1.860              2.272
 Vibration     8          0.640              1.834              2.093
 Vibration     9          0.649              1.804              1.923
 Vibration    10          0.681              1.709              1.527
 Vibration    11          0.683              1.701              1.501
 Vibration    12          0.700              1.651              1.352
 Vibration    13          0.713              1.613              1.255
 Vibration    14          0.716              1.606              1.236
 Vibration    15          0.752              1.508              1.029
 Vibration    16          0.770              1.460              0.945
 Vibration    17          0.788              1.413              0.871
 Vibration    18          0.851              1.261              0.670
 Vibration    19          0.928              1.093              0.502
 Vibration    20          0.937              1.073              0.484

 Optimization completed.
    -- Stationary point found.
 Normal termination of Gaussian 16 at Tue May 16 16:11:37 2023.
