 Gaussian 16, Revision A.03,
 Gaussian 16:  ES64L-G16RevA.03 25-Dec-2016

 -----------------------------
 # opt freq b3lyp/6-31g(2df,p)
 -----------------------------

 -------------------
 Title Card Required
 -------------------
 Symbolic Z-matrix:
 Charge =  0 Multiplicity = 1

 SCF Done:  E(RB3LYP) =  -591.428049485     A.U. after   17 cycles
 SCF Done:  E(RB3LYP) =  -591.435947112     A.U. after   15 cycles
 SCF Done:  E(RB3LYP) =  -591.436444528     A.U. after   12 cycles
 SCF Done:  E(RB3LYP) =  -591.436493797     A.U. after   10 cycles
 SCF Done:  E(RB3LYP) =  -591.436495485     A.U. after    9 cycles
 Optimization completed.
    -- Stationary point found.
 Normal termination of Gaussian 16 at Tue May 16 22:13:29 2023.

 ----------------------------------------------------------------------
 #N Geom=AllCheck Guess=TCheck SCRF=Check GenChk RB3LYP/6-31G(2df,p) Fr
 eq
 ----------------------------------------------------------------------

 Structure from the checkpoint file:  "OdC1CdNc2ccc3cqc2dC1rdCCdC3.chk"
 -------------------
 Title Card Required
 -------------------
 Charge =  0 Multiplicity = 1

                         Standard orientation:
 ---------------------------------------------------------------------
 Center     Atomic      Atomic             Coordinates (Angstroms)
 Number     Number       Type             X           Y           Z
 ---------------------------------------------------------------------
      1          8           0        3.624554   -1.574129    0.000801
      2          6           0        2.682018   -0.790302   -0.000448
      3          6           0        2.913682    0.681538   -0.000243
      4          7           0        1.991607    1.576281   -0.000461
      5          6           0        0.663071    1.153708   -0.000346
      6          6           0       -0.299679    2.126721   -0.000026
      7          6           0       -1.702823    1.820652    0.000375
      8          6           0       -2.108067    0.524017    0.000565
      9          6           0       -1.131631   -0.559947    0.000080
     10          6           0        0.288355   -0.266262   -0.000129
     11          6           0        1.285704   -1.196864    0.000234
     12          6           0       -1.839698   -1.734883   -0.000461
     13          6           0       -3.269718   -1.429985   -0.000447
     14          6           0       -3.437613   -0.082172    0.000392
     15          1           0        3.956459    0.998814   -0.000434
     16          1           0        0.031740    3.158910   -0.000062
     17          1           0       -2.419328    2.636366    0.000456
     18          1           0        1.082855   -2.262802    0.000930
     19          1           0       -1.430654   -2.737137   -0.001243
     20          1           0       -4.050942   -2.177688   -0.000898
     21          1           0       -4.369403    0.465268    0.000795
 ---------------------------------------------------------------------

 SCF Done:  E(RB3LYP) =  -591.436495485     A.U. after    1 cycles

 The electronic state is 1-A.
 Alpha  occ. eigenvalues --  -19.12635 -14.34672 -10.26387 -10.24121 -10.23316
 Alpha  occ. eigenvalues --  -10.22774 -10.22630 -10.21872 -10.21264 -10.21238
 Alpha  occ. eigenvalues --  -10.20472 -10.20094 -10.20034 -10.19943  -1.03123
 Alpha  occ. eigenvalues --   -0.95549  -0.89534  -0.83278  -0.81183  -0.75365
 Alpha  occ. eigenvalues --   -0.72658  -0.69457  -0.64516  -0.62749  -0.59991
 Alpha  occ. eigenvalues --   -0.56323  -0.53666  -0.52279  -0.51291  -0.47549
 Alpha  occ. eigenvalues --   -0.45828  -0.43644  -0.43455  -0.42255  -0.42087
 Alpha  occ. eigenvalues --   -0.40467  -0.39976  -0.38946  -0.38173  -0.36788
 Alpha  occ. eigenvalues --   -0.35776  -0.31546  -0.31236  -0.29579  -0.23692
 Alpha  occ. eigenvalues --   -0.23337  -0.22226
 Alpha virt. eigenvalues --   -0.13751  -0.04409  -0.01762   0.02612   0.06975
 Alpha virt. eigenvalues --    0.09661   0.10038   0.10537   0.12097   0.14299
 Alpha virt. eigenvalues --    0.15206   0.16243   0.17465   0.18862   0.18953

 Mulliken charges:
               1
     1  O   -0.348029
     2  C    0.366402
     3  C   -0.091345
     4  N   -0.303733
     5  C    0.267887
     6  C   -0.172486
     7  C   -0.271470
     8  C    0.283812
     9  C    0.174130
    10  C    0.180823
    11  C   -0.357141
    12  C   -0.253399
    13  C   -0.095965
    14  C   -0.217663
    15  H    0.130085
    16  H    0.128759
    17  H    0.122282
    18  H    0.113773
    19  H    0.118250
    20  H    0.112494
    21  H    0.112533
 Sum of Mulliken charges =  -0.00000

 Dipole moment (field-independent basis, Debye):
    X=             -4.4392    Y=              1.0579    Z=             -0.0019  Tot=              4.5635
 Quadrupole moment (field-independent basis, Debye-Ang):
   XX=            -82.9528   YY=            -74.1381   ZZ=            -79.9170
   XY=              4.2642   XZ=             -0.0064   YZ=              0.0059

  Exact polarizability: 266.468  -5.587 152.888   0.002   0.005  51.279
 Approx polarizability: 635.228 -50.673 312.307   0.029   0.001  89.359

                      1                      2                      3
                      A                      A                      A
 Frequencies --     73.6350               117.7950               172.8301
 Red. masses --      5.8290                 4.9997                 4.2945
 Frc consts  --      0.0186                 0.0409                 0.0756
 IR Inten    --      0.4078                 0.0549                 0.5252

                      4                      5                      6
                      A                      A                      A
 Frequencies --    216.8517               253.0553               302.4283
 Red. masses --      6.1281                 4.6255                 4.3391
 Frc consts  --      0.1698                 0.1745                 0.2338
 IR Inten    --      0.7125                 8.8881                 4.0372

                      7                      8                      9
                      A                      A                      A
 Frequencies --    390.0090               416.5842               446.1581
 Red. masses --      7.0192                 7.3581                 2.7286
 Frc consts  --      0.6290                 0.7524                 0.3200
 IR Inten    --     19.2916                 2.2451                 0.0344

                     10                     11                     12
                      A                      A                      A
 Frequencies --    457.7790               470.1500               508.1193
 Red. masses --      4.9402                 7.0012                 5.0103
 Frc consts  --      0.6100                 0.9118                 0.7622
 IR Inten    --      3.4316                 9.2707                10.5431

                     13                     14                     15
                      A                      A                      A
 Frequencies --    549.2448               599.1416               642.6574
 Red. masses --      2.8819                 7.4318                 3.7333
 Frc consts  --      0.5122                 1.5718                 0.9085
 IR Inten    --      2.6962                10.0765                 2.3724

                     16                     17                     18
                      A                      A                      A
 Frequencies --    668.7057               719.0979               741.4321
 Red. masses --      7.3651                 1.8043                 6.0545
 Frc consts  --      1.9404                 0.5497                 1.9610
 IR Inten    --      0.4069                15.1450                 1.3159

                     19                     20                     21
                      A                      A                      A
 Frequencies --    777.7445               802.3307               813.0028
 Red. masses --      2.0859                 6.5364                 2.7254
 Frc consts  --      0.7434                 2.4791                 1.0614
 IR Inten    --      7.5680                38.4066                 3.5090

                     22                     23                     24
                      A                      A                      A
 Frequencies --    839.2951               875.0148               880.3329
 Red. masses --      5.0450                 1.3684                 4.5341
 Frc consts  --      2.0938                 0.6173                 2.0703
 IR Inten    --      4.8324                26.7908                36.5898

                     25                     26                     27
                      A                      A                      A
 Frequencies --    899.6842               912.8475               922.6002
 Red. masses --      1.5239                 1.5167                 1.4352
 Frc consts  --      0.7268                 0.7447                 0.7198
 IR Inten    --     11.6262                 0.6268                 0.7516

                     28                     29                     30
                      A                      A                      A
 Frequencies --    962.3258               977.0870               977.5210
 Red. masses --      1.6472                 1.5164                 2.8401
 Frc consts  --      0.8987                 0.8530                 1.5990
 IR Inten    --     16.1605                 5.3426                 4.6698

                     31                     32                     33
                      A                      A                      A
 Frequencies --   1000.9865              1063.1281              1109.3293
 Red. masses --      1.9338                 1.8676                 1.1660
 Frc consts  --      1.1416                 1.2437                 0.8454
 IR Inten    --      1.4186                14.0228                14.0704

                     34                     35                     36
                      A                      A                      A
 Frequencies --   1148.8242              1213.5454              1259.0316
 Red. masses --      2.9281                 2.3525                 1.6233
 Frc consts  --      2.2769                 2.0413                 1.5161
 IR Inten    --     26.4456                10.1711                24.0229

                     37                     38                     39
                      A                      A                      A
 Frequencies --   1271.1362              1280.5247              1303.5467
 Red. masses --      3.2251                 2.0087                 2.6512
 Frc consts  --      3.0703                 1.9407                 2.6542
 IR Inten    --      8.9800                13.2029                40.9765

                     40                     41                     42
                      A                      A                      A
 Frequencies --   1349.5263              1362.5305              1407.7545
 Red. masses --      1.9896                 1.6524                 2.3220
 Frc consts  --      2.1349                 1.8074                 2.7112
 IR Inten    --     21.5272                10.7210                14.8607

                     43                     44                     45
                      A                      A                      A
 Frequencies --   1416.1476              1491.8761              1539.6529
 Red. masses --      3.3923                 7.1814                 8.2194
 Frc consts  --      4.0083                 9.4173                11.4799
 IR Inten    --      7.3448                10.0796                25.8756

                     46                     47                     48
                      A                      A                      A
 Frequencies --   1595.7784              1609.3603              1652.1975
 Red. masses --      6.1542                 6.6366                 9.3956
 Frc consts  --      9.2335                10.1276                15.1112
 IR Inten    --      6.9518                52.6237                 2.9948

                     49                     50                     51
                      A                      A                      A
 Frequencies --   1679.0998              1711.8064              3137.9211
 Red. masses --      7.0152                10.4436                 1.0908
 Frc consts  --     11.6532                18.0305                 6.3283
 IR Inten    --     51.6307               313.3333                23.6081

                     52                     53                     54
                      A                      A                      A
 Frequencies --   3178.3996              3187.8686              3205.5077
 Red. masses --      1.0899                 1.0910                 1.0917
 Frc consts  --      6.4870                 6.5323                 6.6091
 IR Inten    --     12.6620                 2.8277                 3.6164

                     55                     56                     57
                      A                      A                      A
 Frequencies --   3214.1850              3226.5460              3246.1071
 Red. masses --      1.0908                 1.0899                 1.1044
 Frc consts  --      6.6396                 6.6853                 6.8563
 IR Inten    --      5.1761                 3.7587                11.6699

 - Thermochemistry -
 -------------------
 Temperature   298.150 Kelvin.  Pressure   1.00000 Atm.
 Atom     1 has atomic number  8 and mass  15.99491

 Molecular mass:   181.05276 amu.
 Principal axes and moments of inertia in atomic units:
                           1         2         3
     Eigenvalues --  1139.446803412.977464552.42401
           X            0.99996   0.00917   0.00000
           Y           -0.00917   0.99996   0.00001
           Z           -0.00000  -0.00001   1.00000
 This molecule is an asymmetric top.
 Rotational symmetry number  1.
 Warning -- assumption of classical behavior for rotation
           may cause significant error
 Rotational temperatures (Kelvin)      0.07601     0.02538     0.01903
 Rotational constants (GHZ):           1.58387     0.52879     0.39644
 Zero-point vibrational energy     408212.4 (Joules/Mol)
                                   97.56510 (Kcal/Mol)
 Warning -- explicit consideration of  14 degrees of freedom as
           vibrations may cause significant error
 Vibrational temperatures:    105.94   169.48   248.66   312.00   364.09
          (Kelvin)            435.13   561.14   599.37   641.92   658.64
                              676.44   731.07   790.24   862.03   924.64
                              962.12  1034.62  1066.76  1119.00  1154.37
                             1169.73  1207.56  1258.95  1266.60  1294.44
                             1313.38  1327.42  1384.57  1405.81  1406.43
                             1440.20  1529.60  1596.08  1652.90  1746.02
                             1811.47  1828.88  1842.39  1875.51  1941.67
                             1960.38  2025.44  2037.52  2146.48  2215.22
                             2295.97  2315.51  2377.14  2415.85  2462.91
                             4514.77  4573.01  4586.63  4612.01  4624.50
                             4642.28  4670.42

 Zero-point correction=                           0.155480 (Hartree/Particle)
 Thermal correction to Energy=                    0.165188
 Thermal correction to Enthalpy=                  0.166132
 Thermal correction to Gibbs Free Energy=         0.120069
 Sum of electronic and zero-point Energies=           -591.281016
 Sum of electronic and thermal Energies=              -591.271307
 Sum of electronic and thermal Enthalpies=            -591.270363
 Sum of electronic and thermal Free Energies=         -591.316427

                     E (Thermal)             CV                S
                      KCal/Mol        Cal/Mol-Kelvin    Cal/Mol-Kelvin
 Total                  103.657             39.864             96.949
 Electronic               0.000              0.000              0.000
 Translational            0.889              2.981             41.487
 Rotational               0.889              2.981             31.249
 Vibrational            101.880             33.902             24.212
 Vibration     1          0.599              1.966              4.054
 Vibration     2          0.608              1.935              3.136
 Vibration     3          0.626              1.876              2.404
 Vibration     4          0.646              1.815              1.985
 Vibration     5          0.664              1.758              1.709
 Vibration     6          0.694              1.669              1.403
 Vibration     7          0.758              1.492              1.000
 Vibration     8          0.780              1.434              0.904
 Vibration     9          0.805              1.369              0.807
 Vibration    10          0.816              1.344              0.773
 Vibration    11          0.827              1.316              0.737
 Vibration    12          0.863              1.232              0.638
 Vibration    13          0.905              1.141              0.546
 Vibration    14          0.957              1.034              0.451

                           ! Non-Optimized Parameters !
 Normal termination of Gaussian 16 at Tue May 16 23:19:47 2023.
