 Gaussian 16, Revision A.03,
 Gaussian 16:  ES64L-G16RevA.03 25-Dec-2016

 -----------------------------
 # opt freq b3lyp/6-31g(2df,p)
 -----------------------------

 -------------------
 Title Card Required
 -------------------
 Symbolic Z-matrix:
 Charge =  0 Multiplicity = 1

 SCF Done:  E(RB3LYP) =  -1693.57390428     A.U. after   17 cycles
 SCF Done:  E(RB3LYP) =  -1693.62887771     A.U. after   14 cycles
 SCF Done:  E(RB3LYP) =  -1693.66937311     A.U. after   14 cycles
 SCF Done:  E(RB3LYP) =  -1693.69643790     A.U. after   14 cycles
 SCF Done:  E(RB3LYP) =  -1693.71252186     A.U. after   14 cycles
 SCF Done:  E(RB3LYP) =  -1693.71495007     A.U. after   13 cycles
 SCF Done:  E(RB3LYP) =  -1693.71791830     A.U. after   14 cycles
 SCF Done:  E(RB3LYP) =  -1693.71943995     A.U. after   13 cycles
 SCF Done:  E(RB3LYP) =  -1693.72006196     A.U. after   12 cycles
 SCF Done:  E(RB3LYP) =  -1693.72040397     A.U. after   12 cycles
 SCF Done:  E(RB3LYP) =  -1693.72161126     A.U. after   13 cycles
 SCF Done:  E(RB3LYP) =  -1693.72259865     A.U. after   13 cycles
 SCF Done:  E(RB3LYP) =  -1693.72283081     A.U. after   13 cycles
 SCF Done:  E(RB3LYP) =  -1693.72294253     A.U. after   11 cycles
 SCF Done:  E(RB3LYP) =  -1693.72301311     A.U. after   11 cycles
 SCF Done:  E(RB3LYP) =  -1693.72303970     A.U. after   11 cycles
 SCF Done:  E(RB3LYP) =  -1693.72304276     A.U. after    9 cycles
 SCF Done:  E(RB3LYP) =  -1693.72304345     A.U. after    8 cycles
 SCF Done:  E(RB3LYP) =  -1693.72304357     A.U. after    7 cycles
 Optimization completed.
    -- Stationary point found.
 Normal termination of Gaussian 16 at Tue May 16 12:53:41 2023.

 ----------------------------------------------------------------------
 #N Geom=AllCheck Guess=TCheck SCRF=Check GenChk RB3LYP/6-31G(2df,p) Fr
 eq
 ----------------------------------------------------------------------

 Structure from the checkpoint file:  "OdC1Cdc2ccsc2dCCdCSCdCS1.chk"
 -------------------
 Title Card Required
 -------------------
 Charge =  0 Multiplicity = 1

                         Standard orientation:
 ---------------------------------------------------------------------
 Center     Atomic      Atomic             Coordinates (Angstroms)
 Number     Number       Type             X           Y           Z
 ---------------------------------------------------------------------
      1          8           0       -1.041439    2.400590   -1.178539
      2          6           0       -0.387152    1.866940   -0.314882
      3          6           0        1.077601    1.807354   -0.334667
      4          6           0        1.978270    0.786476   -0.212244
      5          6           0        3.399409    1.113172   -0.189860
      6          6           0        4.218096    0.081676    0.074905
      7         16           0        3.389471   -1.435270    0.278094
      8          6           0        1.809249   -0.677013   -0.084997
      9          6           0        0.752800   -1.522259   -0.226988
     10          6           0       -0.601417   -1.212203   -0.573453
     11          6           0       -1.624004   -1.991340   -0.166028
     12         16           0       -3.328230   -1.599403   -0.240534
     13          6           0       -3.556801    0.121254    0.028639
     14          6           0       -2.852858    1.145991    0.536982
     15         16           0       -1.202537    1.158779    1.176148
     16          1           0        1.501823    2.785916   -0.549896
     17          1           0        3.743620    2.130788   -0.325561
     18          1           0        5.293060    0.114206    0.183613
     19          1           0        0.940940   -2.569029    0.009414
     20          1           0       -0.814061   -0.295822   -1.105437
     21          1           0       -1.439209   -2.940841    0.329730
     22          1           0       -4.571280    0.349618   -0.294443
     23          1           0       -3.341802    2.114442    0.537120
 ---------------------------------------------------------------------

 SCF Done:  E(RB3LYP) =  -1693.72304357     A.U. after    1 cycles

 The electronic state is 1-A.
 Alpha  occ. eigenvalues --  -88.91152 -88.90605 -88.88444 -19.13933 -10.29465
 Alpha  occ. eigenvalues --  -10.24302 -10.23623 -10.23428 -10.23222 -10.23066
 Alpha  occ. eigenvalues --  -10.22028 -10.21840 -10.21040 -10.20691 -10.20356
 Alpha  occ. eigenvalues --   -7.97295  -7.96858  -7.94734  -5.93768  -5.93330
 Alpha  occ. eigenvalues --   -5.93300  -5.92979  -5.92940  -5.92513  -5.91180
 Alpha  occ. eigenvalues --   -5.90817  -5.90362  -1.05174  -0.89194  -0.85130
 Alpha  occ. eigenvalues --   -0.81755  -0.79997  -0.78549  -0.75126  -0.72230
 Alpha  occ. eigenvalues --   -0.68223  -0.66439  -0.60412  -0.58266  -0.57313
 Alpha  occ. eigenvalues --   -0.54339  -0.51755  -0.49705  -0.48166  -0.47055
 Alpha  occ. eigenvalues --   -0.45824  -0.45575  -0.43747  -0.42552  -0.41494
 Alpha  occ. eigenvalues --   -0.40255  -0.39790  -0.38154  -0.37215  -0.35885
 Alpha  occ. eigenvalues --   -0.35612  -0.34346  -0.33500  -0.32351  -0.29580
 Alpha  occ. eigenvalues --   -0.28039  -0.25771  -0.24366  -0.22926  -0.19881
 Alpha virt. eigenvalues --   -0.08971  -0.03981  -0.02399   0.00322   0.00437
 Alpha virt. eigenvalues --    0.02641   0.04577   0.05209   0.07116   0.08455
 Alpha virt. eigenvalues --    0.09386   0.10036   0.10354   0.10947   0.11577

 Mulliken charges:
               1
     1  O   -0.307835
     2  C    0.259801
     3  C   -0.278501
     4  C    0.232413
     5  C   -0.110708
     6  C   -0.161888
     7  S   -0.060150
     8  C    0.123268
     9  C   -0.148311
    10  C   -0.102236
    11  C   -0.120469
    12  S   -0.042124
    13  C   -0.079254
    14  C   -0.099333
    15  S   -0.162407
    16  H    0.124928
    17  H    0.119410
    18  H    0.141908
    19  H    0.114931
    20  H    0.150571
    21  H    0.127668
    22  H    0.141440
    23  H    0.136879
 Sum of Mulliken charges =   0.00000

 Dipole moment (field-independent basis, Debye):
    X=              1.6613    Y=             -0.7764    Z=              0.4317  Tot=              1.8839
 Quadrupole moment (field-independent basis, Debye-Ang):
   XX=            -92.0937   YY=           -104.5895   ZZ=           -114.0148
   XY=              4.0370   XZ=             -0.8832   YZ=              1.1417

  Exact polarizability: 292.209  10.237 195.777   5.190  -5.134  98.360
 Approx polarizability: 492.509  31.725 420.066  15.543 -23.825 193.400

                      1                      2                      3
                      A                      A                      A
 Frequencies --     39.3339                57.7461                76.0737
 Red. masses --      7.3212                10.0490                 6.9070
 Frc consts  --      0.0067                 0.0197                 0.0236
 IR Inten    --      1.0246                 4.8113                 0.2487

                      4                      5                      6
                      A                      A                      A
 Frequencies --    134.5392               147.0262               157.0998
 Red. masses --      7.0104                 8.7911                 6.7123
 Frc consts  --      0.0748                 0.1120                 0.0976
 IR Inten    --      6.4241                 0.1246                 3.0366

                      7                      8                      9
                      A                      A                      A
 Frequencies --    186.8407               237.8778               248.8411
 Red. masses --      5.2127                 4.5121                 5.7795
 Frc consts  --      0.1072                 0.1504                 0.2109
 IR Inten    --      1.1286                 6.2982                 4.7146

                     10                     11                     12
                      A                      A                      A
 Frequencies --    261.8745               315.5463               349.8935
 Red. masses --      5.8890                 5.5479                 4.4791
 Frc consts  --      0.2379                 0.3255                 0.3231
 IR Inten    --      0.6205                 2.1903                11.5369

                     13                     14                     15
                      A                      A                      A
 Frequencies --    370.1277               388.7356               413.0693
 Red. masses --      3.4761                 6.5283                 4.4658
 Frc consts  --      0.2806                 0.5812                 0.4489
 IR Inten    --      0.2701                 3.6443                 4.7312

                     16                     17                     18
                      A                      A                      A
 Frequencies --    454.2550               466.8774               493.2810
 Red. masses --      4.9808                 4.6432                 8.1933
 Frc consts  --      0.6056                 0.5963                 1.1746
 IR Inten    --      3.2726                 1.8424                 8.0786

                     19                     20                     21
                      A                      A                      A
 Frequencies --    538.3014               578.4822               618.5134
 Red. masses --      4.7503                 6.6491                 7.2717
 Frc consts  --      0.8110                 1.3110                 1.6390
 IR Inten    --      6.9801                10.7136                 5.3890

                     22                     23                     24
                      A                      A                      A
 Frequencies --    628.3159               661.2121               685.2000
 Red. masses --      6.7399                 4.0440                 2.5807
 Frc consts  --      1.5677                 1.0417                 0.7139
 IR Inten    --     11.7086                37.5303                 3.5721

                     25                     26                     27
                      A                      A                      A
 Frequencies --    707.5339               711.8187               726.5182
 Red. masses --      1.5534                 5.2709                 6.6407
 Frc consts  --      0.4582                 1.5735                 2.0652
 IR Inten    --     54.6622                31.2828                16.4094

                     28                     29                     30
                      A                      A                      A
 Frequencies --    753.8246               805.0866               815.4931
 Red. masses --      1.6960                 1.8250                 3.3878
 Frc consts  --      0.5678                 0.6970                 1.3274
 IR Inten    --     21.2556                31.8848                24.7626

                     31                     32                     33
                      A                      A                      A
 Frequencies --    825.5526               835.8936               853.7350
 Red. masses --      4.0399                 2.1848                 2.9838
 Frc consts  --      1.6222                 0.8994                 1.2813
 IR Inten    --     23.6562                61.0784                13.2690

                     34                     35                     36
                      A                      A                      A
 Frequencies --    910.0197               927.3289               941.9544
 Red. masses --      1.6544                 1.3263                 5.0251
 Frc consts  --      0.8072                 0.6720                 2.6269
 IR Inten    --     12.1223                 0.2355                 6.4307

                     37                     38                     39
                      A                      A                      A
 Frequencies --    945.4148              1029.1900              1092.4025
 Red. masses --      1.2644                 1.1103                 5.3207
 Frc consts  --      0.6658                 0.6929                 3.7410
 IR Inten    --      2.0002                26.2189                99.1843

                     40                     41                     42
                      A                      A                      A
 Frequencies --   1104.9545              1168.6331              1203.4981
 Red. masses --      1.4045                 1.8641                 2.2535
 Frc consts  --      1.0103                 1.5000                 1.9231
 IR Inten    --     28.2960                20.8271                 9.3486

                     43                     44                     45
                      A                      A                      A
 Frequencies --   1239.9886              1258.6263              1321.4502
 Red. masses --      1.1619                 1.0946                 1.4034
 Frc consts  --      1.0526                 1.0216                 1.4439
 IR Inten    --      1.1705                 8.9447                10.1578

                     46                     47                     48
                      A                      A                      A
 Frequencies --   1334.3403              1341.4638              1347.9598
 Red. masses --      1.3360                 1.4974                 1.3793
 Frc consts  --      1.4015                 1.5876                 1.4766
 IR Inten    --      0.5499                 9.1586                 8.8477

                     49                     50                     51
                      A                      A                      A
 Frequencies --   1398.7175              1572.8945              1590.8472
 Red. masses --      1.5962                 7.2826                 7.6738
 Frc consts  --      1.8399                10.6154                11.4425
 IR Inten    --     16.1261                85.1465                 7.6497

                     52                     53                     54
                      A                      A                      A
 Frequencies --   1591.2495              1600.2902              1636.9180
 Red. masses --      6.8097                 6.7715                 5.5304
 Frc consts  --     10.1591                10.2172                 8.7310
 IR Inten    --     11.2051                12.1227                36.0193

                     55                     56                     57
                      A                      A                      A
 Frequencies --   1744.3937              3128.8466              3140.8046
 Red. masses --     12.7428                 1.0865                 1.0840
 Frc consts  --     22.8457                 6.2671                 6.3001
 IR Inten    --    259.4649                 3.5284                 1.2762

                     58                     59                     60
                      A                      A                      A
 Frequencies --   3146.7826              3160.9825              3178.9057
 Red. masses --      1.0851                 1.0890                 1.0912
 Frc consts  --      6.3306                 6.4110                 6.4967
 IR Inten    --      0.9396                 6.4640                 6.6541

                     61                     62                     63
                      A                      A                      A
 Frequencies --   3208.5205              3228.7933              3243.5020
 Red. masses --      1.0886                 1.0884                 1.0994
 Frc consts  --      6.6025                 6.6854                 6.8146
 IR Inten    --      2.8700                 3.6885                 2.0032

 - Thermochemistry -
 -------------------
 Temperature   298.150 Kelvin.  Pressure   1.00000 Atm.
 Atom     1 has atomic number  8 and mass  15.99491

 Molecular mass:   251.97373 amu.
 Principal axes and moments of inertia in atomic units:
                           1         2         3
     Eigenvalues --  2206.980846060.249777660.55048
           X            0.99998   0.00563  -0.00072
           Y           -0.00563   0.99998  -0.00405
           Z            0.00069   0.00405   0.99999
 This molecule is an asymmetric top.
 Rotational symmetry number  1.
 Warning -- assumption of classical behavior for rotation
           may cause significant error
 Rotational temperatures (Kelvin)      0.03925     0.01429     0.01131
 Rotational constants (GHZ):           0.81774     0.29780     0.23559
 Zero-point vibrational energy     414411.5 (Joules/Mol)
                                   99.04673 (Kcal/Mol)
 Warning -- explicit consideration of  21 degrees of freedom as
           vibrations may cause significant error
 Vibrational temperatures:     56.59    83.08   109.45   193.57   211.54
          (Kelvin)            226.03   268.82   342.25   358.03   376.78
                              454.00   503.42   532.53   559.30   594.31
                              653.57   671.73   709.72   774.50   832.31
                              889.90   904.01   951.34   985.85  1017.98
                             1024.15  1045.30  1084.59  1158.34  1173.31
                             1187.79  1202.66  1228.33  1309.32  1334.22
                             1355.26  1360.24  1480.77  1571.72  1589.78
                             1681.40  1731.57  1784.07  1810.88  1901.27
                             1919.82  1930.07  1939.41  2012.44  2263.04
                             2288.87  2289.45  2302.46  2355.16  2509.79
                             4501.71  4518.92  4527.52  4547.95  4573.74
                             4616.35  4645.51  4666.68

 Zero-point correction=                           0.157841 (Hartree/Particle)
 Thermal correction to Energy=                    0.171667
 Thermal correction to Enthalpy=                  0.172611
 Thermal correction to Gibbs Free Energy=         0.116428
 Sum of electronic and zero-point Energies=          -1693.565203
 Sum of electronic and thermal Energies=             -1693.551377
 Sum of electronic and thermal Enthalpies=           -1693.550433
 Sum of electronic and thermal Free Energies=        -1693.606615

                     E (Thermal)             CV                S
                      KCal/Mol        Cal/Mol-Kelvin    Cal/Mol-Kelvin
 Total                  107.722             52.970            118.246
 Electronic               0.000              0.000              0.000
 Translational            0.889              2.981             42.473
 Rotational               0.889              2.981             32.993
 Vibrational            105.945             47.008             42.779
 Vibration     1          0.594              1.981              5.292
 Vibration     2          0.596              1.974              4.533
 Vibration     3          0.599              1.965              3.990
 Vibration     4          0.613              1.919              2.880
 Vibration     5          0.617              1.906              2.710
 Vibration     6          0.621              1.895              2.584
 Vibration     7          0.632              1.858              2.259
 Vibration     8          0.656              1.783              1.819
 Vibration     9          0.662              1.765              1.739
 Vibration    10          0.669              1.743              1.649
 Vibration    11          0.703              1.644              1.333
 Vibration    12          0.727              1.575              1.167
 Vibration    13          0.742              1.534              1.079
 Vibration    14          0.757              1.494              1.005
 Vibration    15          0.777              1.442              0.916
 Vibration    16          0.813              1.351              0.783
 Vibration    17          0.824              1.324              0.746
 Vibration    18          0.849              1.265              0.675
 Vibration    19          0.893              1.165              0.569
 Vibration    20          0.935              1.078              0.488
 Vibration    21          0.978              0.993              0.419

                           ! Non-Optimized Parameters !
 Normal termination of Gaussian 16 at Tue May 16 14:29:10 2023.
