 Gaussian 16, Revision A.03,
 Gaussian 16:  ES64L-G16RevA.03 25-Dec-2016

 -----------------------------
 # opt freq b3lyp/6-31g(2df,p)
 -----------------------------

 -------------------
 Title Card Required
 -------------------
 Symbolic Z-matrix:
 Charge =  0 Multiplicity = 1

 SCF Done:  E(RB3LYP) =  -857.460141805     A.U. after   27 cycles
 SCF Done:  E(RB3LYP) =  -857.511304387     A.U. after   19 cycles
 SCF Done:  E(RB3LYP) =  -857.520795776     A.U. after   17 cycles
 SCF Done:  E(RB3LYP) =  -857.548549836     A.U. after   18 cycles
 SCF Done:  E(RB3LYP) =  -857.638493100     A.U. after   19 cycles
 SCF Done:  E(RB3LYP) =  -857.675460073     A.U. after   18 cycles
 SCF Done:  E(RB3LYP) =  -857.703277179     A.U. after   17 cycles
 SCF Done:  E(RB3LYP) =  -857.745974468     A.U. after   17 cycles
 SCF Done:  E(RB3LYP) =  -857.775536370     A.U. after   16 cycles
 SCF Done:  E(RB3LYP) =  -857.810581633     A.U. after   16 cycles
 SCF Done:  E(RB3LYP) =  -857.879743098     A.U. after   12 cycles
 SCF Done:  E(RB3LYP) =  -857.879911032     A.U. after   12 cycles
 SCF Done:  E(RB3LYP) =  -857.879976390     A.U. after   12 cycles
 SCF Done:  E(RB3LYP) =  -857.879993804     A.U. after   10 cycles
 SCF Done:  E(RB3LYP) =  -857.880000439     A.U. after   10 cycles
 SCF Done:  E(RB3LYP) =  -857.880010970     A.U. after   10 cycles
 SCF Done:  E(RB3LYP) =  -857.880013732     A.U. after    9 cycles
 SCF Done:  E(RB3LYP) =  -857.880014595     A.U. after    8 cycles
 SCF Done:  E(RB3LYP) =  -857.880014852     A.U. after    8 cycles
 Optimization completed.
    -- Stationary point found.
 Normal termination of Gaussian 16 at Fri May 19 23:28:05 2023.

 ----------------------------------------------------------------------
 #N Geom=AllCheck Guess=TCheck SCRF=Check GenChk RB3LYP/6-31G(2df,p) Fr
 eq
 ----------------------------------------------------------------------

 Structure from the checkpoint file:  "OdC1CdCCdCC2dS3CdC3C1dC2.chk"
 -------------------
 Title Card Required
 -------------------
 Charge =  0 Multiplicity = 1

                         Standard orientation:
 ---------------------------------------------------------------------
 Center     Atomic      Atomic             Coordinates (Angstroms)
 Number     Number       Type             X           Y           Z
 ---------------------------------------------------------------------
      1          8           0       -2.727326   -0.678316    1.474596
      2          6           0       -1.932011   -0.382819    0.620082
      3          6           0       -2.222265    0.755803   -0.352343
      4          6           0       -1.415025    1.595203   -1.048131
      5          6           0        0.052314    1.539592   -0.967335
      6          6           0        0.632010    1.472297    0.251269
      7          6           0        1.521530    0.330147    0.617175
      8         16           0        3.048517   -0.050353    0.267532
      9          6           0       -0.009565   -1.949097   -1.960414
     10          6           0       -0.240843   -1.482473   -0.871388
     11          6           0       -0.547545   -0.999844    0.416497
     12          6           0        0.387825   -0.457838    1.243302
     13          1           0       -3.295321    0.841430   -0.511319
     14          1           0       -1.890348    2.252466   -1.775418
     15          1           0        0.588416    1.216664   -1.857561
     16          1           0        0.034185    1.842888    1.083126
     17          1           0        0.194000   -2.359809   -2.918948
     18          1           0        0.052848   -0.087288    2.210561
 ---------------------------------------------------------------------

 SCF Done:  E(RB3LYP) =  -857.880014852     A.U. after    1 cycles

 The electronic state is 1-A.
 Alpha  occ. eigenvalues --  -88.87221 -19.15187 -10.30148 -10.28647 -10.23781
 Alpha  occ. eigenvalues --  -10.23582 -10.23350 -10.22540 -10.22339 -10.21945
 Alpha  occ. eigenvalues --  -10.20751 -10.20476  -7.93723  -5.90049  -5.90010
 Alpha  occ. eigenvalues --   -5.89213  -1.06358  -0.89323  -0.82628  -0.81743
 Alpha  occ. eigenvalues --   -0.75824  -0.75322  -0.68020  -0.66839  -0.60318
 Alpha  occ. eigenvalues --   -0.56436  -0.54788  -0.53556  -0.50860  -0.49210
 Alpha  occ. eigenvalues --   -0.47688  -0.45553  -0.43403  -0.42389  -0.41745
 Alpha  occ. eigenvalues --   -0.40343  -0.38405  -0.34942  -0.31671  -0.30636
 Alpha  occ. eigenvalues --   -0.30171  -0.28317  -0.25919  -0.24427  -0.22644
 Alpha virt. eigenvalues --   -0.09746  -0.08869  -0.06701  -0.00694   0.02456
 Alpha virt. eigenvalues --    0.05138   0.07346   0.09280   0.10312   0.10557
 Alpha virt. eigenvalues --    0.11141   0.13299   0.15256   0.16712   0.18913

 Mulliken charges:
               1
     1  O   -0.306669
     2  C    0.312056
     3  C   -0.126321
     4  C   -0.081567
     5  C   -0.107690
     6  C   -0.140427
     7  C    0.205973
     8  S   -0.263680
     9  C   -0.449207
    10  C    0.332092
    11  C   -0.055384
    12  C   -0.198449
    13  H    0.131017
    14  H    0.119266
    15  H    0.136242
    16  H    0.125927
    17  H    0.215230
    18  H    0.151592
 Sum of Mulliken charges =   0.00000

 Dipole moment (field-independent basis, Debye):
    X=             -0.9763    Y=              1.5526    Z=             -2.3029  Tot=              2.9440
 Quadrupole moment (field-independent basis, Debye-Ang):
   XX=            -85.2299   YY=            -74.4716   ZZ=            -68.2519
   XY=             -4.3616   XZ=              5.2582   YZ=              4.3418

  Exact polarizability: 157.279  -4.426 102.881   0.658   3.620 114.874
 Approx polarizability: 270.051   1.227 182.333  -6.883  10.243 239.372

                      1                      2                      3
                      A                      A                      A
 Frequencies --     71.5742                93.1488               109.8678
 Red. masses --     10.0795                 6.5759                 5.9406
 Frc consts  --      0.0304                 0.0336                 0.0422
 IR Inten    --      1.7741                 0.9963                 1.2331

                      4                      5                      6
                      A                      A                      A
 Frequencies --    138.9100               169.4517               259.3668
 Red. masses --      4.6629                 7.4510                 5.4057
 Frc consts  --      0.0530                 0.1261                 0.2143
 IR Inten    --      0.1812                 1.8778                 1.1469

                      7                      8                      9
                      A                      A                      A
 Frequencies --    282.4016               288.0568               305.8242
 Red. masses --      5.0430                 2.4532                 4.6033
 Frc consts  --      0.2370                 0.1199                 0.2537
 IR Inten    --      2.4870                 1.1500                 3.9652

                     10                     11                     12
                      A                      A                      A
 Frequencies --    415.5418               433.0748               473.9701
 Red. masses --      5.4313                 7.0021                 5.1922
 Frc consts  --      0.5526                 0.7738                 0.6872
 IR Inten    --      4.9998                 1.0868                 0.1763

                     13                     14                     15
                      A                      A                      A
 Frequencies --    532.1429               583.9375               590.1269
 Red. masses --      3.9297                 3.1476                 5.6385
 Frc consts  --      0.6556                 0.6324                 1.1569
 IR Inten    --      4.8326                 8.7898                10.0658

                     16                     17                     18
                      A                      A                      A
 Frequencies --    621.7799               628.7562               643.2196
 Red. masses --      3.7605                 1.4668                 1.2847
 Frc consts  --      0.8566                 0.3417                 0.3132
 IR Inten    --     11.2984                24.1550                33.6186

                     19                     20                     21
                      A                      A                      A
 Frequencies --    661.8786               734.9438               765.4542
 Red. masses --      4.0137                 3.3305                 3.8864
 Frc consts  --      1.0360                 1.0599                 1.3417
 IR Inten    --      1.2520                10.4592                 8.9711

                     22                     23                     24
                      A                      A                      A
 Frequencies --    806.3179               817.3643               845.6612
 Red. masses --      3.5615                 4.0967                 2.8940
 Frc consts  --      1.3643                 1.6126                 1.2194
 IR Inten    --     29.6186                25.5561                 5.6192

                     25                     26                     27
                      A                      A                      A
 Frequencies --    897.5013               930.7585               964.9292
 Red. masses --      1.5350                 2.7910                 2.2586
 Frc consts  --      0.7285                 1.4246                 1.2390
 IR Inten    --     58.1610                38.2081                26.8600

                     28                     29                     30
                      A                      A                      A
 Frequencies --   1003.8149              1022.2405              1047.0476
 Red. masses --      1.2184                 1.9148                 2.4344
 Frc consts  --      0.7233                 1.1789                 1.5724
 IR Inten    --      7.2265                17.4845                 8.9573

                     31                     32                     33
                      A                      A                      A
 Frequencies --   1117.4047              1234.7269              1270.6983
 Red. masses --      2.9589                 1.2464                 1.3483
 Frc consts  --      2.1767                 1.1196                 1.2827
 IR Inten    --     40.2574                32.0291                 1.1647

                     34                     35                     36
                      A                      A                      A
 Frequencies --   1300.5144              1319.7706              1371.1549
 Red. masses --      5.1329                 1.6161                 1.2808
 Frc consts  --      5.1150                 1.6585                 1.4187
 IR Inten    --    191.8028                 9.6289                56.1360

                     37                     38                     39
                      A                      A                      A
 Frequencies --   1391.0137              1528.3081              1577.5355
 Red. masses --      1.4469                 9.1105                 7.5283
 Frc consts  --      1.6495                12.5376                11.0384
 IR Inten    --     12.5349                 5.1093                 6.2609

                     40                     41                     42
                      A                      A                      A
 Frequencies --   1589.9623              1788.1371              2198.7913
 Red. masses --      5.3634                12.8060                 6.1678
 Frc consts  --      7.9885                24.1248                17.5690
 IR Inten    --     19.3148               324.8087                 6.0741

                     43                     44                     45
                      A                      A                      A
 Frequencies --   3118.7439              3127.9356              3144.1073
 Red. masses --      1.0849                 1.0848                 1.0865
 Frc consts  --      6.2174                 6.2533                 6.3281
 IR Inten    --      2.6706                16.5950                 0.4155

                     46                     47                     48
                      A                      A                      A
 Frequencies --   3150.5959              3160.8015              3497.1309
 Red. masses --      1.0862                 1.0911                 1.1564
 Frc consts  --      6.3527                 6.4224                 8.3326
 IR Inten    --      1.8736                 7.8172                78.2979

 - Thermochemistry -
 -------------------
 Temperature   298.150 Kelvin.  Pressure   1.00000 Atm.
 Atom     1 has atomic number  8 and mass  15.99491

 Molecular mass:   174.01394 amu.
 Principal axes and moments of inertia in atomic units:
                           1         2         3
     Eigenvalues --  1340.112062742.766272867.44453
           X            0.99982  -0.01764   0.00757
           Y            0.01721   0.99845   0.05291
           Z           -0.00850  -0.05277   0.99857
 This molecule is an asymmetric top.
 Rotational symmetry number  1.
 Warning -- assumption of classical behavior for rotation
           may cause significant error
 Rotational temperatures (Kelvin)      0.06463     0.03158     0.03021
 Rotational constants (GHZ):           1.34671     0.65800     0.62939
 Zero-point vibrational energy     323149.6 (Joules/Mol)
                                   77.23461 (Kcal/Mol)
 Warning -- explicit consideration of  15 degrees of freedom as
           vibrations may cause significant error
 Vibrational temperatures:    102.98   134.02   158.08   199.86   243.80
          (Kelvin)            373.17   406.31   414.45   440.01   597.87
                              623.10   681.94   765.63   840.16   849.06
                              894.60   904.64   925.45   952.30  1057.42
                             1101.32  1160.11  1176.00  1216.72  1291.30
                             1339.15  1388.32  1444.27  1470.78  1506.47
                             1607.70  1776.50  1828.25  1871.15  1898.86
                             1972.79  2001.36  2198.89  2269.72  2287.60
                             2572.73  3163.57  4487.18  4500.40  4523.67
                             4533.00  4547.69  5031.59

 Zero-point correction=                           0.123081 (Hartree/Particle)
 Thermal correction to Energy=                    0.133869
 Thermal correction to Enthalpy=                  0.134814
 Thermal correction to Gibbs Free Energy=         0.086397
 Sum of electronic and zero-point Energies=           -857.756934
 Sum of electronic and thermal Energies=              -857.746145
 Sum of electronic and thermal Enthalpies=            -857.745201
 Sum of electronic and thermal Free Energies=         -857.793618

                     E (Thermal)             CV                S
                      KCal/Mol        Cal/Mol-Kelvin    Cal/Mol-Kelvin
 Total                   84.004             40.760            101.902
 Electronic               0.000              0.000              0.000
 Translational            0.889              2.981             41.369
 Rotational               0.889              2.981             30.734
 Vibrational             82.227             34.798             29.799
 Vibration     1          0.598              1.968              4.110
 Vibration     2          0.602              1.954              3.593
 Vibration     3          0.606              1.941              3.271
 Vibration     4          0.615              1.914              2.819
 Vibration     5          0.625              1.880              2.442
 Vibration     6          0.668              1.747              1.666
 Vibration     7          0.681              1.706              1.519
 Vibration     8          0.685              1.696              1.485
 Vibration     9          0.696              1.663              1.385
 Vibration    10          0.779              1.436              0.907
 Vibration    11          0.794              1.398              0.849
 Vibration    12          0.831              1.308              0.727
 Vibration    13          0.887              1.179              0.582
 Vibration    14          0.941              1.066              0.478
 Vibration    15          0.947              1.053              0.467

 Optimization completed.
    -- Stationary point found.
 Normal termination of Gaussian 16 at Sat May 20 00:43:15 2023.
