 Gaussian 16, Revision A.03,
 Gaussian 16:  ES64L-G16RevA.03 25-Dec-2016

 -----------------------------
 # opt freq b3lyp/6-31g(2df,p)
 -----------------------------

 -------------------
 Title Card Required
 -------------------
 Symbolic Z-matrix:
 Charge =  0 Multiplicity = 1

 SCF Done:  E(RB3LYP) =  -858.021405679     A.U. after   17 cycles
 SCF Done:  E(RB3LYP) =  -858.033768484     A.U. after   14 cycles
 SCF Done:  E(RB3LYP) =  -858.036984278     A.U. after   14 cycles
 SCF Done:  E(RB3LYP) =  -858.037393783     A.U. after   14 cycles
 SCF Done:  E(RB3LYP) =  -858.038063928     A.U. after   13 cycles
 SCF Done:  E(RB3LYP) =  -858.038120685     A.U. after   14 cycles
 SCF Done:  E(RB3LYP) =  -858.038280056     A.U. after   13 cycles
 SCF Done:  E(RB3LYP) =  -858.038296460     A.U. after   11 cycles
 SCF Done:  E(RB3LYP) =  -858.038302493     A.U. after   10 cycles
 SCF Done:  E(RB3LYP) =  -858.038304368     A.U. after    9 cycles
 SCF Done:  E(RB3LYP) =  -858.038304648     A.U. after    8 cycles
 SCF Done:  E(RB3LYP) =  -858.038304699     A.U. after    7 cycles
 Optimization completed.
    -- Stationary point found.
 Normal termination of Gaussian 16 at Wed May 17 11:18:58 2023.

 ----------------------------------------------------------------------
 #N Geom=AllCheck Guess=TCheck SCRF=Check GenChk RB3LYP/6-31G(2df,p) Fr
 eq
 ----------------------------------------------------------------------

 Structure from the checkpoint file:  "OdC1CdCCdC2CdCCdC2C1dS.chk"
 -------------------
 Title Card Required
 -------------------
 Charge =  0 Multiplicity = 1

                         Standard orientation:
 ---------------------------------------------------------------------
 Center     Atomic      Atomic             Coordinates (Angstroms)
 Number     Number       Type             X           Y           Z
 ---------------------------------------------------------------------
      1          8           0       -2.621673    0.454537    1.035751
      2          6           0       -1.652051    0.574871    0.316900
      3          6           0       -1.361217    1.924404   -0.233701
      4          6           0       -0.165836    2.513786   -0.427201
      5          6           0        1.146707    1.949437   -0.222088
      6          6           0        1.480824    0.655924    0.008305
      7          6           0        2.860069    0.196978    0.146554
      8          6           0        2.856912   -1.159854    0.250821
      9          6           0        1.492043   -1.622176    0.175481
     10          6           0        0.632091   -0.549484    0.040190
     11          6           0       -0.801371   -0.635033   -0.041560
     12         16           0       -1.630902   -1.991668   -0.485333
     13          1           0       -2.263914    2.516338   -0.354979
     14          1           0       -0.174299    3.559136   -0.725142
     15          1           0        1.968219    2.660764   -0.271959
     16          1           0        3.717677    0.855963    0.144237
     17          1           0        3.718916   -1.801489    0.370162
     18          1           0        1.172199   -2.653441    0.234799
 ---------------------------------------------------------------------

 SCF Done:  E(RB3LYP) =  -858.038304699     A.U. after    1 cycles

 The electronic state is 1-A.
 Alpha  occ. eigenvalues --  -88.85092 -19.14473 -10.28663 -10.25569 -10.23763
 Alpha  occ. eigenvalues --  -10.22966 -10.22514 -10.22364 -10.21643 -10.21126
 Alpha  occ. eigenvalues --  -10.21067 -10.20764  -7.91570  -5.87888  -5.87860
 Alpha  occ. eigenvalues --   -5.87071  -1.05409  -0.90033  -0.83970  -0.81367
 Alpha  occ. eigenvalues --   -0.76644  -0.71950  -0.69721  -0.63632  -0.61914
 Alpha  occ. eigenvalues --   -0.56931  -0.55506  -0.53365  -0.50938  -0.46814
 Alpha  occ. eigenvalues --   -0.44621  -0.43993  -0.43201  -0.41726  -0.40067
 Alpha  occ. eigenvalues --   -0.39969  -0.39407  -0.38170  -0.35926  -0.33671
 Alpha  occ. eigenvalues --   -0.30972  -0.27236  -0.25681  -0.22852  -0.21603
 Alpha virt. eigenvalues --   -0.13414  -0.06996  -0.03728   0.04484   0.06178
 Alpha virt. eigenvalues --    0.07590   0.10646   0.10743   0.11857   0.13221
 Alpha virt. eigenvalues --    0.15004   0.15646   0.17014   0.17452   0.22294

 Mulliken charges:
               1
     1  O   -0.282293
     2  C    0.293847
     3  C   -0.166737
     4  C   -0.062746
     5  C   -0.171074
     6  C    0.196836
     7  C   -0.160428
     8  C   -0.122536
     9  C   -0.140690
    10  C    0.106279
    11  C    0.067633
    12  S   -0.310312
    13  H    0.137532
    14  H    0.118437
    15  H    0.115204
    16  H    0.117576
    17  H    0.118918
    18  H    0.144553
 Sum of Mulliken charges =   0.00000

 Dipole moment (field-independent basis, Debye):
    X=              4.7747    Y=              3.2591    Z=             -0.7808  Tot=              5.8334
 Quadrupole moment (field-independent basis, Debye-Ang):
   XX=            -75.7922   YY=            -66.3789   ZZ=            -77.8353
   XY=             -3.9766   XZ=              3.8627   YZ=             -3.7577

  Exact polarizability: 190.632   3.660 163.105   7.283  -2.668  60.304
 Approx polarizability: 406.028   7.740 307.346  18.510  -3.821 113.193

                      1                      2                      3
                      A                      A                      A
 Frequencies --     57.2397                89.2833               174.0078
 Red. masses --      9.8898                 4.4447                 5.7001
 Frc consts  --      0.0191                 0.0209                 0.1017
 IR Inten    --      1.2758                 1.4751                 2.3868

                      4                      5                      6
                      A                      A                      A
 Frequencies --    216.7377               235.1309               296.6295
 Red. masses --      5.3165                 7.3272                 5.3341
 Frc consts  --      0.1471                 0.2387                 0.2765
 IR Inten    --      1.0031                 0.2506                 0.8776

                      7                      8                      9
                      A                      A                      A
 Frequencies --    339.6286               354.5455               426.2891
 Red. masses --      7.3505                 7.0059                 3.3128
 Frc consts  --      0.4995                 0.5189                 0.3547
 IR Inten    --      6.3218                 3.7680                 4.3512

                     10                     11                     12
                      A                      A                      A
 Frequencies --    460.9876               526.7371               545.8570
 Red. masses --      6.3791                 4.4670                 3.0634
 Frc consts  --      0.7987                 0.7302                 0.5378
 IR Inten    --      0.2358                 1.6584                 5.4487

                     13                     14                     15
                      A                      A                      A
 Frequencies --    587.5613               677.4309               711.5599
 Red. masses --      4.7994                 2.9082                 2.4719
 Frc consts  --      0.9762                 0.7863                 0.7374
 IR Inten    --      2.2004                 5.8110                 1.6735

                     16                     17                     18
                      A                      A                      A
 Frequencies --    719.4777               789.0175               800.2706
 Red. masses --      3.5336                 1.7392                 5.0025
 Frc consts  --      1.0777                 0.6379                 1.8876
 IR Inten    --      2.1200                31.1258                 0.8240

                     19                     20                     21
                      A                      A                      A
 Frequencies --    829.0011               849.5391               887.4991
 Red. masses --      3.1929                 4.1788                 4.4423
 Frc consts  --      1.2928                 1.7769                 2.0615
 IR Inten    --     13.4645                56.4957                 6.0567

                     22                     23                     24
                      A                      A                      A
 Frequencies --    909.0408               949.9136               961.1257
 Red. masses --      1.4449                 1.4992                 1.4400
 Frc consts  --      0.7035                 0.7970                 0.7837
 IR Inten    --      9.4453                 2.0350                 3.3974

                     25                     26                     27
                      A                      A                      A
 Frequencies --    996.7114              1020.0853              1035.1886
 Red. masses --      4.0125                 1.3214                 1.7625
 Frc consts  --      2.3486                 0.8101                 1.1128
 IR Inten    --     26.8546                 1.2564                27.0530

                     28                     29                     30
                      A                      A                      A
 Frequencies --   1070.3691              1108.9696              1141.7176
 Red. masses --      3.1480                 1.2938                 1.9984
 Frc consts  --      2.1250                 0.9374                 1.5348
 IR Inten    --     49.5282                 5.3659                 9.2286

                     31                     32                     33
                      A                      A                      A
 Frequencies --   1208.2312              1260.3047              1294.4164
 Red. masses --      4.0048                 1.3522                 1.9184
 Frc consts  --      3.4445                 1.2655                 1.8938
 IR Inten    --     26.6598                12.5779                 9.4781

                     34                     35                     36
                      A                      A                      A
 Frequencies --   1329.1259              1378.1177              1408.8352
 Red. masses --      3.1849                 2.4402                 1.6516
 Frc consts  --      3.3150                 2.7305                 1.9314
 IR Inten    --     71.5895                39.9853                 9.4661

                     37                     38                     39
                      A                      A                      A
 Frequencies --   1437.0196              1461.7479              1581.9084
 Red. masses --      1.7854                 7.0711                 4.8703
 Frc consts  --      2.1722                 8.9018                 7.1808
 IR Inten    --      2.1303               203.6993                24.6442

                     40                     41                     42
                      A                      A                      A
 Frequencies --   1632.8188              1689.0297              1745.0193
 Red. masses --      9.4361                 5.9542                12.4223
 Frc consts  --     14.8224                10.0081                22.2871
 IR Inten    --     34.4493                 8.8844               125.7870

                     43                     44                     45
                      A                      A                      A
 Frequencies --   3149.4406              3163.9430              3183.7701
 Red. masses --      1.0853                 1.0875                 1.0932
 Frc consts  --      6.3424                 6.4142                 6.5288
 IR Inten    --      7.3501                12.6735                 5.0157

                     46                     47                     48
                      A                      A                      A
 Frequencies --   3220.4952              3235.8881              3246.3201
 Red. masses --      1.0871                 1.0951                 1.1032
 Frc consts  --      6.6431                 6.7558                 6.8501
 IR Inten    --      0.8646                 4.3494                 4.7400

 - Thermochemistry -
 -------------------
 Temperature   298.150 Kelvin.  Pressure   1.00000 Atm.
 Atom     1 has atomic number  8 and mass  15.99491

 Molecular mass:   174.01394 amu.
 Principal axes and moments of inertia in atomic units:
                           1         2         3
     Eigenvalues --  1536.948252134.172823445.36134
           X            0.99903  -0.04365   0.00496
           Y            0.04372   0.99894  -0.01455
           Z           -0.00432   0.01475   0.99988
 This molecule is an asymmetric top.
 Rotational symmetry number  1.
 Warning -- assumption of classical behavior for rotation
           may cause significant error
 Rotational temperatures (Kelvin)      0.05635     0.04058     0.02514
 Rotational constants (GHZ):           1.17424     0.84564     0.52382
 Zero-point vibrational energy     337310.9 (Joules/Mol)
                                   80.61925 (Kcal/Mol)
 Warning -- explicit consideration of  13 degrees of freedom as
           vibrations may cause significant error
 Vibrational temperatures:     82.36   128.46   250.36   311.84   338.30
          (Kelvin)            426.78   488.65   510.11   613.33   663.26
                              757.86   785.37   845.37   974.67  1023.78
                             1035.17  1135.22  1151.41  1192.75  1222.30
                             1276.91  1307.91  1366.71  1382.85  1434.05
                             1467.68  1489.41  1540.02  1595.56  1642.68
                             1738.38  1813.30  1862.38  1912.32  1982.80
                             2027.00  2067.55  2103.13  2276.01  2349.26
                             2430.14  2510.69  4531.34  4552.21  4580.74
                             4633.57  4655.72  4670.73

 Zero-point correction=                           0.128475 (Hartree/Particle)
 Thermal correction to Energy=                    0.137877
 Thermal correction to Enthalpy=                  0.138822
 Thermal correction to Gibbs Free Energy=         0.092962
 Sum of electronic and zero-point Energies=           -857.909830
 Sum of electronic and thermal Energies=              -857.900427
 Sum of electronic and thermal Enthalpies=            -857.899483
 Sum of electronic and thermal Free Energies=         -857.945342

                     E (Thermal)             CV                S
                      KCal/Mol        Cal/Mol-Kelvin    Cal/Mol-Kelvin
 Total                   86.519             36.314             96.519
 Electronic               0.000              0.000              0.000
 Translational            0.889              2.981             41.369
 Rotational               0.889              2.981             30.803
 Vibrational             84.742             30.352             24.347
 Vibration     1          0.596              1.975              4.550
 Vibration     2          0.602              1.957              3.676
 Vibration     3          0.627              1.874              2.392
 Vibration     4          0.646              1.816              1.986
 Vibration     5          0.655              1.787              1.839
 Vibration     6          0.690              1.680              1.436
 Vibration     7          0.720              1.596              1.214
 Vibration     8          0.730              1.566              1.146
 Vibration     9          0.788              1.413              0.871
 Vibration    10          0.819              1.337              0.763
 Vibration    11          0.882              1.191              0.595
 Vibration    12          0.901              1.149              0.553
 Vibration    13          0.945              1.058              0.472

 Optimization completed.
    -- Stationary point found.
 Normal termination of Gaussian 16 at Wed May 17 12:02:40 2023.
