 Gaussian 16, Revision A.03,
 Gaussian 16:  ES64L-G16RevA.03 25-Dec-2016

 -----------------------------
 # opt freq b3lyp/6-31g(2df,p)
 -----------------------------

 -------------------
 Title Card Required
 -------------------
 Symbolic Z-matrix:
 Charge =  0 Multiplicity = 1

 SCF Done:  E(RB3LYP) =  -725.204028834     A.U. after   25 cycles
 SCF Done:  E(RB3LYP) =  -725.258845586     A.U. after   15 cycles
 SCF Done:  E(RB3LYP) =  -725.301062646     A.U. after   15 cycles
 SCF Done:  E(RB3LYP) =  -725.316557851     A.U. after   15 cycles
 SCF Done:  E(RB3LYP) =  -725.328524101     A.U. after   14 cycles
 SCF Done:  E(RB3LYP) =  -725.336161713     A.U. after   14 cycles
 SCF Done:  E(RB3LYP) =  -725.342114360     A.U. after   14 cycles
 SCF Done:  E(RB3LYP) =  -725.347096068     A.U. after   14 cycles
 SCF Done:  E(RB3LYP) =  -725.350406955     A.U. after   14 cycles
 SCF Done:  E(RB3LYP) =  -725.353585166     A.U. after   13 cycles
 SCF Done:  E(RB3LYP) =  -725.373365200     A.U. after   14 cycles
 SCF Done:  E(RB3LYP) =  -725.373691583     A.U. after   13 cycles
 SCF Done:  E(RB3LYP) =  -725.373782806     A.U. after   12 cycles
 SCF Done:  E(RB3LYP) =  -725.373806224     A.U. after   11 cycles
 SCF Done:  E(RB3LYP) =  -725.373813578     A.U. after    9 cycles
 SCF Done:  E(RB3LYP) =  -725.373815662     A.U. after    8 cycles
 SCF Done:  E(RB3LYP) =  -725.373817877     A.U. after    9 cycles
 SCF Done:  E(RB3LYP) =  -725.373818371     A.U. after    8 cycles
 SCF Done:  E(RB3LYP) =  -725.373818842     A.U. after    8 cycles
 Optimization completed.
    -- Stationary point found.

 The electronic state is 1-A.
 Alpha  occ. eigenvalues --  -19.10787 -14.36631 -14.34056 -10.28842 -10.24867
 Alpha  occ. eigenvalues --  -10.24245 -10.22920 -10.20977 -10.20585 -10.20020
 Alpha  occ. eigenvalues --  -10.19582 -10.19426 -10.19176 -10.18907 -10.18833
 Alpha  occ. eigenvalues --  -10.18786 -10.18680  -1.03745  -0.95062  -0.93236
 Alpha  occ. eigenvalues --   -0.86033  -0.80806  -0.80039  -0.76548  -0.76339
 Alpha  occ. eigenvalues --   -0.70636  -0.68668  -0.63479  -0.62406  -0.59803
 Alpha  occ. eigenvalues --   -0.58167  -0.55695  -0.55293  -0.52372  -0.51494
 Alpha  occ. eigenvalues --   -0.49417  -0.48683  -0.47701  -0.45671  -0.44669
 Alpha  occ. eigenvalues --   -0.43212  -0.42155  -0.41471  -0.40779  -0.40021
 Alpha  occ. eigenvalues --   -0.39636  -0.38719  -0.37613  -0.35683  -0.35568
 Alpha  occ. eigenvalues --   -0.33945  -0.32094  -0.30616  -0.28453  -0.26199
 Alpha  occ. eigenvalues --   -0.25719  -0.25177  -0.23503  -0.17754
 Alpha virt. eigenvalues --   -0.09029  -0.03728  -0.02271   0.00639   0.03835
 Alpha virt. eigenvalues --    0.05346   0.08649   0.09630   0.09713   0.10426
 Alpha virt. eigenvalues --    0.11627   0.13231   0.14030   0.14622   0.15725

 Mulliken charges:
               1
     1  O   -0.353904
     2  C    0.370419
     3  C   -0.195786
     4  C   -0.083651
     5  C   -0.144896
     6  C    0.177062
     7  C   -0.127054
     8  C   -0.126004
     9  C   -0.131245
    10  C   -0.135113
    11  C    0.133211
    12  C   -0.089452
    13  N   -0.154364
    14  C   -0.040742
    15  C   -0.158092
    16  C   -0.000629
    17  N   -0.329513
    18  H    0.109229
    19  H    0.108670
    20  H    0.090370
    21  H    0.098361
    22  H    0.099001
    23  H    0.098319
    24  H    0.095338
    25  H    0.101293
    26  H    0.097625
    27  H    0.127546
    28  H    0.110744
    29  H    0.253256
 Sum of Mulliken charges =  -0.00000

 Dipole moment (field-independent basis, Debye):
    X=              1.8876    Y=              3.4085    Z=              1.3621  Tot=              4.1275
 Quadrupole moment (field-independent basis, Debye-Ang):
   XX=            -97.2447   YY=            -93.9154   ZZ=            -98.2881
   XY=            -13.2139   XZ=             -2.4169   YZ=              5.8128

 Normal termination of Gaussian 16 at Tue May 16 21:39:09 2023.

 ----------------------------------------------------------------------
 #N Geom=AllCheck Guess=TCheck SCRF=Check GenChk RB3LYP/6-31G(2df,p) Fr
 eq
 ----------------------------------------------------------------------

 Structure from the checkpoint file:  "OdC1CdCCdc2ccccc2dCNdCCdCN1.chk"
 -------------------
 Title Card Required
 -------------------
 Charge =  0 Multiplicity = 1

                         Standard orientation:
 ---------------------------------------------------------------------
 Center     Atomic      Atomic             Coordinates (Angstroms)
 Number     Number       Type             X           Y           Z
 ---------------------------------------------------------------------
      1          8           0       -4.175070   -1.992491    0.164715
      2          6           0       -3.336842   -1.109182    0.126239
      3          6           0       -1.925370   -1.437855   -0.199266
      4          6           0       -0.768121   -0.838094    0.173515
      5          6           0        0.530135   -1.320814   -0.210449
      6          6           0        1.789059   -0.752999   -0.136390
      7          6           0        2.900126   -1.673511   -0.299284
      8          6           0        4.180640   -1.345073   -0.001801
      9          6           0        4.505968   -0.021998    0.452342
     10          6           0        3.543245    0.928057    0.493073
     11          6           0        2.176033    0.660470    0.092886
     12          6           0        1.385117    1.757274   -0.164946
     13          7           0        0.123422    1.638573   -0.653582
     14          6           0       -0.905560    2.300378   -0.270357
     15          6           0       -2.174373    1.673502   -0.601120
     16          6           0       -3.041976    1.387228    0.387986
     17          7           0       -3.771142    0.204723    0.404009
     18          1           0       -1.879117   -2.344646   -0.796367
     19          1           0       -0.802173    0.026635    0.818189
     20          1           0        0.524847   -2.345000   -0.583045
     21          1           0        2.658287   -2.688268   -0.599854
     22          1           0        4.966453   -2.088414   -0.084933
     23          1           0        5.528742    0.216779    0.722682
     24          1           0        3.788827    1.947634    0.774345
     25          1           0        1.807567    2.752059    0.002476
     26          1           0       -0.863062    3.094855    0.488090
     27          1           0       -2.145667    1.025254   -1.470171
     28          1           0       -3.103740    2.000152    1.287777
     29          1           0       -4.694844    0.195523    0.815519
 ---------------------------------------------------------------------

 SCF Done:  E(RB3LYP) =  -725.373818842     A.U. after    1 cycles
