 Gaussian 16, Revision A.03,
 Gaussian 16:  ES64L-G16RevA.03 25-Dec-2016

 -----------------------------
 # opt freq b3lyp/6-31g(2df,p)
 -----------------------------

 -------------------
 Title Card Required
 -------------------
 Symbolic Z-matrix:
 Charge =  0 Multiplicity = 1

 SCF Done:  E(RB3LYP) =  -591.682637267     A.U. after   28 cycles
 SCF Done:  E(RB3LYP) =  -591.815990125     A.U. after   19 cycles
 SCF Done:  E(RB3LYP) =  -591.992733499     A.U. after   20 cycles
 SCF Done:  E(RB3LYP) =  -592.048154410     A.U. after   22 cycles
 SCF Done:  E(RB3LYP) =  -592.038838319     A.U. after   24 cycles
 SCF Done:  E(RB3LYP) =  -592.127660942     A.U. after   17 cycles
 SCF Done:  E(RB3LYP) =  -592.190191569     A.U. after   18 cycles
 SCF Done:  E(RB3LYP) =  -592.226996177     A.U. after   17 cycles
 SCF Done:  E(RB3LYP) =  -592.249502380     A.U. after   17 cycles
 SCF Done:  E(RB3LYP) =  -592.281054018     A.U. after   17 cycles
 SCF Done:  E(RB3LYP) =  -592.419345406     A.U. after   13 cycles
 SCF Done:  E(RB3LYP) =  -592.419636050     A.U. after   13 cycles
 SCF Done:  E(RB3LYP) =  -592.419749264     A.U. after   12 cycles
 SCF Done:  E(RB3LYP) =  -592.419816859     A.U. after   12 cycles
 SCF Done:  E(RB3LYP) =  -592.419843278     A.U. after   11 cycles
 SCF Done:  E(RB3LYP) =  -592.419851863     A.U. after    9 cycles
 SCF Done:  E(RB3LYP) =  -592.419854563     A.U. after    8 cycles
 SCF Done:  E(RB3LYP) =  -592.419855431     A.U. after    8 cycles
 SCF Done:  E(RB3LYP) =  -592.419855695     A.U. after    7 cycles
 Optimization completed.
    -- Stationary point found.
 Normal termination of Gaussian 16 at Mon May 15 23:04:29 2023.

 ----------------------------------------------------------------------
 #N Geom=AllCheck Guess=TCheck SCRF=Check GenChk RB3LYP/6-31G(2df,p) Fr
 eq
 ----------------------------------------------------------------------

 Structure from the checkpoint file:  "OdC1CdC2CdCCdCCdCNdCCdC12.chk"
 -------------------
 Title Card Required
 -------------------
 Charge =  0 Multiplicity = 1

                         Standard orientation:
 ---------------------------------------------------------------------
 Center     Atomic      Atomic             Coordinates (Angstroms)
 Number     Number       Type             X           Y           Z
 ---------------------------------------------------------------------
      1          8           0        3.865560   -0.241853    0.690601
      2          6           0        2.843277    0.198835    0.241184
      3          6           0        2.286168    1.553230   -0.091454
      4          6           0        1.101943    1.007865   -0.500251
      5          6           0       -0.215073    1.455674   -0.894466
      6          6           0       -1.037663    2.174313   -0.092633
      7          6           0       -2.442034    1.738111   -0.158738
      8          6           0       -2.733699    0.867290    0.839868
      9          6           0       -2.868876   -0.526810    0.388259
     10          6           0       -1.753948   -1.248664    0.603664
     11          7           0       -1.273404   -2.274934   -0.259271
     12          6           0       -0.032566   -2.443376   -0.667864
     13          6           0        1.075123   -1.683254   -0.123494
     14          6           0        1.514718   -0.405442   -0.187974
     15          1           0        2.644049    2.569705   -0.004328
     16          1           0       -0.677770    0.858793   -1.679019
     17          1           0       -0.657716    2.659613    0.802243
     18          1           0       -2.828431    1.526356   -1.154866
     19          1           0       -2.234432    1.003795    1.798333
     20          1           0       -3.554853   -0.778339   -0.417190
     21          1           0       -0.998352   -0.925018    1.309984
     22          1           0       -1.985467   -2.820373   -0.733429
     23          1           0        1.858098   -2.361797    0.231757
 ---------------------------------------------------------------------

 SCF Done:  E(RB3LYP) =  -592.419855695     A.U. after    1 cycles

 The electronic state is 1-A.
 Alpha  occ. eigenvalues --  -19.12002 -14.40876 -10.25986 -10.24064 -10.23081
 Alpha  occ. eigenvalues --  -10.22980 -10.22677 -10.22644 -10.22162 -10.20961
 Alpha  occ. eigenvalues --  -10.20944 -10.19625 -10.19585 -10.19351  -1.02902
 Alpha  occ. eigenvalues --   -0.97731  -0.87991  -0.86170  -0.80618  -0.76706
 Alpha  occ. eigenvalues --   -0.73869  -0.67342  -0.64381  -0.61816  -0.59353
 Alpha  occ. eigenvalues --   -0.58636  -0.55286  -0.52205  -0.51066  -0.48729
 Alpha  occ. eigenvalues --   -0.47384  -0.45470  -0.44482  -0.43368  -0.42245
 Alpha  occ. eigenvalues --   -0.41246  -0.40761  -0.40638  -0.39305  -0.38005
 Alpha  occ. eigenvalues --   -0.35380  -0.33119  -0.31155  -0.29046  -0.25877
 Alpha  occ. eigenvalues --   -0.23739  -0.21456  -0.18800
 Alpha virt. eigenvalues --   -0.06837  -0.04684  -0.04056  -0.01827   0.00150
 Alpha virt. eigenvalues --    0.02526   0.06655   0.08769   0.10768   0.12254
 Alpha virt. eigenvalues --    0.12676   0.13557   0.14245   0.15139   0.15738

 Mulliken charges:
               1
     1  O   -0.322662
     2  C    0.397190
     3  C   -0.461929
     4  C    0.302928
     5  C   -0.189809
     6  C   -0.106907
     7  C   -0.108308
     8  C   -0.081714
     9  C   -0.170517
    10  C    0.029087
    11  N   -0.188085
    12  C   -0.139681
    13  C   -0.272691
    14  C    0.076488
    15  H    0.129511
    16  H    0.106708
    17  H    0.121943
    18  H    0.111740
    19  H    0.116167
    20  H    0.112621
    21  H    0.135140
    22  H    0.269817
    23  H    0.132961
 Sum of Mulliken charges =   0.00000

 Dipole moment (field-independent basis, Debye):
    X=             -5.8112    Y=              1.5844    Z=             -0.0253  Tot=              6.0234
 Quadrupole moment (field-independent basis, Debye-Ang):
   XX=            -90.2575   YY=            -79.2301   ZZ=            -79.6768
   XY=              8.4202   XZ=              0.4113   YZ=             -0.5297

  Exact polarizability: 196.357   5.704 161.629   4.145   3.928  86.680
 Approx polarizability: 349.877  14.654 322.238   2.859   2.022 162.802

                      1                      2                      3
                      A                      A                      A
 Frequencies --     78.7418               110.5561               126.3153
 Red. masses --      8.5875                 4.7664                 4.4352
 Frc consts  --      0.0314                 0.0343                 0.0417
 IR Inten    --      0.9561                 2.9819                 4.3464

                      4                      5                      6
                      A                      A                      A
 Frequencies --    143.0006               165.3241               203.3902
 Red. masses --      3.4826                 4.2238                 3.8516
 Frc consts  --      0.0420                 0.0680                 0.0939
 IR Inten    --      0.9661                 9.6596                 3.5030

                      7                      8                      9
                      A                      A                      A
 Frequencies --    216.5498               253.7190               290.2494
 Red. masses --      5.3325                 2.4292                 4.7934
 Frc consts  --      0.1473                 0.0921                 0.2379
 IR Inten    --      0.4024                 3.6256                10.6625

                     10                     11                     12
                      A                      A                      A
 Frequencies --    308.7142               373.5579               409.6562
 Red. masses --      2.3212                 5.0715                 4.2403
 Frc consts  --      0.1303                 0.4170                 0.4193
 IR Inten    --     10.8831                 0.9633                 5.6835

                     13                     14                     15
                      A                      A                      A
 Frequencies --    417.9072               475.4418               503.0475
 Red. masses --      3.6587                 4.7406                 4.1398
 Frc consts  --      0.3765                 0.6314                 0.6172
 IR Inten    --     19.2756                 7.0203                 5.8497

                     16                     17                     18
                      A                      A                      A
 Frequencies --    546.9226               618.5899               624.0070
 Red. masses --      4.6765                 4.5881                 4.3436
 Frc consts  --      0.8242                 1.0344                 0.9965
 IR Inten    --     11.0233                 3.6706                22.5553

                     19                     20                     21
                      A                      A                      A
 Frequencies --    675.5949               694.4639               755.3254
 Red. masses --      4.8425                 2.9691                 2.9024
 Frc consts  --      1.3022                 0.8437                 0.9756
 IR Inten    --      1.7775                 7.8135                28.3087

                     22                     23                     24
                      A                      A                      A
 Frequencies --    769.4805               804.9008               811.9826
 Red. masses --      1.7559                 1.6211                 2.1118
 Frc consts  --      0.6126                 0.6188                 0.8203
 IR Inten    --      4.2908               149.3504                11.9438

                     25                     26                     27
                      A                      A                      A
 Frequencies --    831.1772               851.2625               854.4065
 Red. masses --      2.1099                 2.0534                 2.2170
 Frc consts  --      0.8588                 0.8767                 0.9536
 IR Inten    --     24.0908                39.7967                33.4865

                     28                     29                     30
                      A                      A                      A
 Frequencies --    899.0858               924.8979               966.8995
 Red. masses --      1.5780                 3.6194                 1.3227
 Frc consts  --      0.7515                 1.8242                 0.7286
 IR Inten    --     47.7199                83.9175                36.3585

                     31                     32                     33
                      A                      A                      A
 Frequencies --    990.1247               996.0699              1010.9755
 Red. masses --      1.8181                 1.3400                 6.9945
 Frc consts  --      1.0502                 0.7833                 4.2120
 IR Inten    --      8.6633                77.2968                 8.2391

                     34                     35                     36
                      A                      A                      A
 Frequencies --   1077.4258              1085.5557              1094.1276
 Red. masses --      1.5430                 2.1027                 3.9462
 Frc consts  --      1.0553                 1.4600                 2.7833
 IR Inten    --     42.8956                31.1107                12.4072

                     37                     38                     39
                      A                      A                      A
 Frequencies --   1128.4527              1140.6828              1193.0509
 Red. masses --      2.9059                 3.0517                 1.6801
 Frc consts  --      2.1802                 2.3395                 1.4090
 IR Inten    --      8.7570                 1.9302                13.5317

                     40                     41                     42
                      A                      A                      A
 Frequencies --   1227.2369              1260.0631              1312.4567
 Red. masses --      1.4451                 1.3577                 1.4036
 Frc consts  --      1.2823                 1.2701                 1.4245
 IR Inten    --      5.9099                 8.4942                 4.6605

                     43                     44                     45
                      A                      A                      A
 Frequencies --   1322.3960              1326.6448              1347.4105
 Red. masses --      1.4008                 1.3731                 1.2496
 Frc consts  --      1.4432                 1.4238                 1.3367
 IR Inten    --      7.1024                 1.1695                 0.3575

                     46                     47                     48
                      A                      A                      A
 Frequencies --   1351.2601              1459.3624              1490.6920
 Red. masses --      1.3871                 1.4515                 4.5259
 Frc consts  --      1.4922                 1.8213                 5.9256
 IR Inten    --      1.1140                 9.5893                33.5849

                     49                     50                     51
                      A                      A                      A
 Frequencies --   1549.0788              1578.5292              1605.5072
 Red. masses --      4.3284                 4.5923                 7.5650
 Frc consts  --      6.1197                 6.7419                11.4890
 IR Inten    --     13.1713                 5.4739               150.6383

                     52                     53                     54
                      A                      A                      A
 Frequencies --   1630.7758              1651.2584              1870.9654
 Red. masses --      4.4995                 9.9517                12.6011
 Frc consts  --      7.0502                15.9874                25.9891
 IR Inten    --      9.5288                35.3886               466.3020

                     55                     56                     57
                      A                      A                      A
 Frequencies --   3071.3958              3126.5703              3130.8435
 Red. masses --      1.0814                 1.0885                 1.0857
 Frc consts  --      6.0104                 6.2690                 6.2701
 IR Inten    --      0.6340                 4.1119                 4.3061

                     58                     59                     60
                      A                      A                      A
 Frequencies --   3133.1173              3157.9388              3172.2592
 Red. masses --      1.0853                 1.0898                 1.0893
 Frc consts  --      6.2770                 6.4033                 6.4583
 IR Inten    --     18.9301                11.8294                 6.1455

                     61                     62                     63
                      A                      A                      A
 Frequencies --   3204.2184              3231.0023              3520.1561
 Red. masses --      1.0885                 1.1000                 1.0750
 Frc consts  --      6.5847                 6.7659                 7.8485
 IR Inten    --      4.2679                 0.1166                26.1227

 - Thermochemistry -
 -------------------
 Temperature   298.150 Kelvin.  Pressure   1.00000 Atm.
 Atom     1 has atomic number  8 and mass  15.99491

 Molecular mass:   183.06841 amu.
 Principal axes and moments of inertia in atomic units:
                           1         2         3
     Eigenvalues --  1637.884103154.200814409.49721
           X            0.99998   0.00632   0.00246
           Y           -0.00633   0.99997   0.00385
           Z           -0.00244  -0.00386   0.99999
 This molecule is an asymmetric top.
 Rotational symmetry number  1.
 Warning -- assumption of classical behavior for rotation
           may cause significant error
 Rotational temperatures (Kelvin)      0.05288     0.02746     0.01964
 Rotational constants (GHZ):           1.10187     0.57217     0.40929
 Zero-point vibrational energy     455494.7 (Joules/Mol)
                                  108.86585 (Kcal/Mol)
 Warning -- explicit consideration of  17 degrees of freedom as
           vibrations may cause significant error
 Vibrational temperatures:    113.29   159.07   181.74   205.75   237.86
          (Kelvin)            292.63   311.57   365.05   417.60   444.17
                              537.47   589.40   601.28   684.05   723.77
                              786.90   890.01   897.81   972.03   999.18
                             1086.74  1107.11  1158.07  1168.26  1195.88
                             1224.78  1229.30  1293.58  1330.72  1391.15
                             1424.57  1433.12  1454.57  1550.18  1561.87
                             1574.21  1623.59  1641.19  1716.53  1765.72
                             1812.95  1888.33  1902.63  1908.75  1938.62
                             1944.16  2099.70  2144.77  2228.78  2271.15
                             2309.97  2346.32  2375.79  2691.90  4419.05
                             4498.44  4504.59  4507.86  4543.57  4564.17
                             4610.16  4648.69  5064.72

 Zero-point correction=                           0.173489 (Hartree/Particle)
 Thermal correction to Energy=                    0.185336
 Thermal correction to Enthalpy=                  0.186280
 Thermal correction to Gibbs Free Energy=         0.135895
 Sum of electronic and zero-point Energies=           -592.246367
 Sum of electronic and thermal Energies=              -592.234519
 Sum of electronic and thermal Enthalpies=            -592.233575
 Sum of electronic and thermal Free Energies=         -592.283961

                     E (Thermal)             CV                S
                      KCal/Mol        Cal/Mol-Kelvin    Cal/Mol-Kelvin
 Total                  116.300             46.153            106.046
 Electronic               0.000              0.000              0.000
 Translational            0.889              2.981             41.520
 Rotational               0.889              2.981             31.499
 Vibrational            114.523             40.191             33.026
 Vibration     1          0.600              1.963              3.922
 Vibration     2          0.606              1.941              3.259
 Vibration     3          0.611              1.927              3.001
 Vibration     4          0.616              1.910              2.763
 Vibration     5          0.624              1.885              2.488
 Vibration     6          0.639              1.835              2.102
 Vibration     7          0.645              1.816              1.988
 Vibration     8          0.665              1.757              1.705
 Vibration     9          0.686              1.692              1.473
 Vibration    10          0.698              1.657              1.369
 Vibration    11          0.745              1.526              1.065
 Vibration    12          0.774              1.449              0.928
 Vibration    13          0.781              1.431              0.899
 Vibration    14          0.832              1.305              0.722
 Vibration    15          0.858              1.243              0.651
 Vibration    16          0.902              1.146              0.551
 Vibration    17          0.978              0.993              0.419

                           ! Non-Optimized Parameters !
 Normal termination of Gaussian 16 at Tue May 16 00:17:56 2023.
