 Gaussian 16, Revision A.03,
 Gaussian 16:  ES64L-G16RevA.03 25-Dec-2016

 -----------------------------
 # opt freq b3lyp/6-31g(2df,p)
 -----------------------------

 -------------------
 Title Card Required
 -------------------
 Symbolic Z-matrix:
 Charge =  0 Multiplicity = 1

 SCF Done:  E(RB3LYP) =  -2390.06274988     A.U. after   56 cycles
 SCF Done:  E(RB3LYP) =  -2390.17807684     A.U. after   20 cycles
 SCF Done:  E(RB3LYP) =  -2390.33054878     A.U. after   19 cycles
 SCF Done:  E(RB3LYP) =  -2390.40983123     A.U. after   23 cycles
 SCF Done:  E(RB3LYP) =  -2390.06026662     A.U. after   29 cycles
 SCF Done:  E(RB3LYP) =  -2390.45556244     A.U. after   16 cycles
 SCF Done:  E(RB3LYP) =  -2390.47701705     A.U. after   17 cycles
 SCF Done:  E(RB3LYP) =  -2390.48504851     A.U. after   21 cycles
 SCF Done:  E(RB3LYP) =  -2390.50557356     A.U. after   21 cycles
 SCF Done:  E(RB3LYP) =  -2390.51057696     A.U. after   16 cycles
 SCF Done:  E(RB3LYP) =  -2390.53443665     A.U. after   13 cycles
 SCF Done:  E(RB3LYP) =  -2390.53445165     A.U. after   12 cycles
 SCF Done:  E(RB3LYP) =  -2390.53447670     A.U. after   13 cycles
 SCF Done:  E(RB3LYP) =  -2390.53449141     A.U. after   12 cycles
 SCF Done:  E(RB3LYP) =  -2390.53450241     A.U. after   12 cycles
 SCF Done:  E(RB3LYP) =  -2390.53451213     A.U. after   12 cycles
 SCF Done:  E(RB3LYP) =  -2390.53451616     A.U. after   11 cycles
 SCF Done:  E(RB3LYP) =  -2390.53451652     A.U. after    8 cycles
 SCF Done:  E(RB3LYP) =  -2390.53451657     A.U. after    8 cycles
 Optimization completed.
    -- Stationary point found.
 Normal termination of Gaussian 16 at Tue May 16 23:56:01 2023.

 ----------------------------------------------------------------------
 #N Geom=AllCheck Guess=TCheck SCRF=Check GenChk RB3LYP/6-31G(2df,p) Fr
 eq
 ----------------------------------------------------------------------

 Structure from the checkpoint file:  "OdC1CdCCdCSSC2dNSSS2dC1.chk"
 -------------------
 Title Card Required
 -------------------
 Charge =  0 Multiplicity = 1

                         Standard orientation:
 ---------------------------------------------------------------------
 Center     Atomic      Atomic             Coordinates (Angstroms)
 Number     Number       Type             X           Y           Z
 ---------------------------------------------------------------------
      1          8           0        6.555760   -1.556261   -0.227085
      2          6           0        5.596223   -0.834490    0.186886
      3          6           0        4.476344   -0.320011   -0.557506
      4          6           0        3.439410    0.286025    0.057599
      5          6           0        2.279360    0.805582   -0.618328
      6          6           0        1.269472    1.410278    0.035378
      7         16           0       -0.069221    2.170599   -0.817111
      8         16           0       -1.624232    2.070564    0.548752
      9          6           0       -2.433462    0.510476    0.261662
     10          7           0       -3.686059    0.449675    0.467358
     11         16           0       -4.419061   -1.069752    0.534196
     12         16           0       -3.037675   -2.088734   -0.708450
     13         16           0       -1.422279   -0.963202   -0.006686
     14          6           0        6.073283   -0.944741    1.476819
     15          1           0        4.501122   -0.462702   -1.634128
     16          1           0        3.462603    0.379281    1.142056
     17          1           0        2.240588    0.704839   -1.700554
     18          1           0        1.261312    1.513325    1.116577
     19          1           0        6.846421   -0.222675    1.754938
 ---------------------------------------------------------------------

 SCF Done:  E(RB3LYP) =  -2390.53451657     A.U. after    1 cycles

 The electronic state is 1-A.
 Alpha  occ. eigenvalues --  -88.94996 -88.94767 -88.94360 -88.93799 -88.93349
 Alpha  occ. eigenvalues --  -19.16082 -14.39099 -10.31432 -10.27919 -10.25888
 Alpha  occ. eigenvalues --  -10.24119 -10.23478 -10.22355 -10.21768  -8.00910
 Alpha  occ. eigenvalues --   -8.00884  -8.00507  -8.00017  -7.99706  -5.97519
 Alpha  occ. eigenvalues --   -5.97419  -5.97040  -5.97032  -5.97014  -5.96601
 Alpha  occ. eigenvalues --   -5.96530  -5.96425  -5.96288  -5.96221  -5.96148
 Alpha  occ. eigenvalues --   -5.96062  -5.95890  -5.95511  -5.95084  -1.06167
 Alpha  occ. eigenvalues --   -0.99022  -0.87591  -0.84628  -0.82682  -0.80773
 Alpha  occ. eigenvalues --   -0.77047  -0.71824  -0.69591  -0.65839  -0.64477
 Alpha  occ. eigenvalues --   -0.59869  -0.56330  -0.54394  -0.51316  -0.49063
 Alpha  occ. eigenvalues --   -0.47731  -0.46703  -0.45715  -0.44505  -0.43003
 Alpha  occ. eigenvalues --   -0.41842  -0.41016  -0.39718  -0.39542  -0.38634
 Alpha  occ. eigenvalues --   -0.37492  -0.35864  -0.32956  -0.32096  -0.30989
 Alpha  occ. eigenvalues --   -0.30512  -0.29809  -0.28077  -0.25578  -0.22524
 Alpha  occ. eigenvalues --   -0.21969
 Alpha virt. eigenvalues --   -0.10561  -0.08680  -0.07284  -0.06521  -0.04357
 Alpha virt. eigenvalues --   -0.03614  -0.00202   0.00035   0.00876   0.02778
 Alpha virt. eigenvalues --    0.05753   0.06443   0.07702   0.12360   0.12918

 Mulliken charges:
               1
     1  O   -0.328909
     2  C    0.481987
     3  C   -0.262594
     4  C   -0.029445
     5  C   -0.061130
     6  C   -0.120902
     7  S   -0.009920
     8  S   -0.010324
     9  C    0.193245
    10  N   -0.202476
    11  S    0.067061
    12  S   -0.041543
    13  S   -0.033916
    14  C   -0.322963
    15  H    0.121127
    16  H    0.124562
    17  H    0.123386
    18  H    0.149392
    19  H    0.163361
 Sum of Mulliken charges =  -0.00000

 Dipole moment (field-independent basis, Debye):
    X=             -1.6847    Y=              2.6338    Z=             -0.7536  Tot=              3.2160
 Quadrupole moment (field-independent basis, Debye-Ang):
   XX=           -142.7093   YY=           -119.5481   ZZ=           -114.7068
   XY=             20.3758   XZ=             -3.8572   YZ=              4.4775

  Exact polarizability: 341.420 -24.428 169.650  -1.278   7.163 134.219
 Approx polarizability: 514.022 -67.569 321.252 -36.107  34.851 273.650
