 Gaussian 16, Revision A.03,
 Gaussian 16:  ES64L-G16RevA.03 25-Dec-2016

 -----------------------------
 # opt freq b3lyp/6-31g(2df,p)
 -----------------------------

 -------------------
 Title Card Required
 -------------------
 Symbolic Z-matrix:
 Charge =  0 Multiplicity = 1

 SCF Done:  E(RB3LYP) =  -1158.06474809     A.U. after   17 cycles
 SCF Done:  E(RB3LYP) =  -1158.11654583     A.U. after   14 cycles
 SCF Done:  E(RB3LYP) =  -1158.15634275     A.U. after   16 cycles
 SCF Done:  E(RB3LYP) =  -1158.16088891     A.U. after   13 cycles
 SCF Done:  E(RB3LYP) =  -1158.16281884     A.U. after   14 cycles
 SCF Done:  E(RB3LYP) =  -1158.16460856     A.U. after   13 cycles
 SCF Done:  E(RB3LYP) =  -1158.16550673     A.U. after   13 cycles
 SCF Done:  E(RB3LYP) =  -1158.16604178     A.U. after   14 cycles
 SCF Done:  E(RB3LYP) =  -1158.16647401     A.U. after   13 cycles
 SCF Done:  E(RB3LYP) =  -1158.16675896     A.U. after   12 cycles
 SCF Done:  E(RB3LYP) =  -1158.16682708     A.U. after   12 cycles
 SCF Done:  E(RB3LYP) =  -1158.16684484     A.U. after    9 cycles
 SCF Done:  E(RB3LYP) =  -1158.16685853     A.U. after   11 cycles
 SCF Done:  E(RB3LYP) =  -1158.16686505     A.U. after   10 cycles
 SCF Done:  E(RB3LYP) =  -1158.16687163     A.U. after   10 cycles
 SCF Done:  E(RB3LYP) =  -1158.16687564     A.U. after   10 cycles
 SCF Done:  E(RB3LYP) =  -1158.16687823     A.U. after    9 cycles
 SCF Done:  E(RB3LYP) =  -1158.16687853     A.U. after    8 cycles
 Optimization completed.
    -- Stationary point found.

 The electronic state is 1-A.
 Alpha  occ. eigenvalues --  -88.91065 -19.20696 -19.16593 -14.33225 -14.32374
 Alpha  occ. eigenvalues --  -10.31774 -10.28793 -10.25792 -10.23921 -10.23318
 Alpha  occ. eigenvalues --  -10.23147 -10.23114 -10.22725 -10.22677 -10.22308
 Alpha  occ. eigenvalues --  -10.21762 -10.21549 -10.20506  -7.97222  -5.93661
 Alpha  occ. eigenvalues --   -5.93311  -5.92880  -1.10029  -1.07658  -0.97612
 Alpha  occ. eigenvalues --   -0.95907  -0.83979  -0.82724  -0.80719  -0.77508
 Alpha  occ. eigenvalues --   -0.76468  -0.71207  -0.69857  -0.65922  -0.63950
 Alpha  occ. eigenvalues --   -0.60302  -0.57786  -0.56544  -0.56041  -0.54072
 Alpha  occ. eigenvalues --   -0.52224  -0.51044  -0.47710  -0.47334  -0.45994
 Alpha  occ. eigenvalues --   -0.45347  -0.44866  -0.43099  -0.42181  -0.41833
 Alpha  occ. eigenvalues --   -0.41078  -0.40887  -0.40016  -0.39588  -0.38669
 Alpha  occ. eigenvalues --   -0.38289  -0.36883  -0.32393  -0.30076  -0.29290
 Alpha  occ. eigenvalues --   -0.27712  -0.27266  -0.26595  -0.25503  -0.24391
 Alpha  occ. eigenvalues --   -0.20802
 Alpha virt. eigenvalues --   -0.11012  -0.08999  -0.05613  -0.01690   0.02442
 Alpha virt. eigenvalues --    0.02689   0.04781   0.05937   0.07752   0.08218
 Alpha virt. eigenvalues --    0.09116   0.09704   0.11503   0.12264   0.12977

 Mulliken charges:
               1
     1  O   -0.281885
     2  C    0.257106
     3  S   -0.118089
     4  C    0.030956
     5  C    0.343731
     6  C   -0.225828
     7  C   -0.167688
     8  C    0.215710
     9  C   -0.282239
    10  C   -0.019357
    11  N   -0.282747
    12  C    0.238183
    13  C   -0.160230
    14  C   -0.229856
    15  C    0.305358
    16  O   -0.402552
    17  N   -0.339146
    18  C   -0.091496
    19  H    0.126325
    20  H    0.141312
    21  H    0.121276
    22  H    0.119607
    23  H    0.137440
    24  H    0.111367
    25  H    0.310285
    26  H    0.142455
 Sum of Mulliken charges =  -0.00000

 Dipole moment (field-independent basis, Debye):
    X=              0.0567    Y=              0.4881    Z=             -2.9293  Tot=              2.9703
 Quadrupole moment (field-independent basis, Debye-Ang):
   XX=           -109.6528   YY=           -111.3061   ZZ=           -104.2603
   XY=             10.8308   XZ=              0.8815   YZ=             11.8995

 Normal termination of Gaussian 16 at Wed May 17 06:21:49 2023.

 ----------------------------------------------------------------------
 #N Geom=AllCheck Guess=TCheck SCRF=Check GenChk RB3LYP/6-31G(2df,p) Fr
 eq
 ----------------------------------------------------------------------

 Structure from the checkpoint file:  "Odc1sc2cqccc3ccnc-3ccc1OrdNCd2.chk"
 -------------------
 Title Card Required
 -------------------
 Charge =  0 Multiplicity = 1

                         Standard orientation:
 ---------------------------------------------------------------------
 Center     Atomic      Atomic             Coordinates (Angstroms)
 Number     Number       Type             X           Y           Z
 ---------------------------------------------------------------------
      1          8           0       -0.223359   -2.262802    1.496532
      2          6           0       -0.860989   -1.636001    0.694042
      3         16           0       -2.313804   -0.692645    1.282840
      4          6           0       -2.461249    0.670544    0.210407
      5          6           0       -1.598892    1.900201   -0.283177
      6          6           0       -0.197720    2.140519   -0.299011
      7          6           0        0.584160    1.194318    0.271128
      8          6           0        2.005810    0.964122    0.202332
      9          6           0        3.072267    1.764682    0.478004
     10          6           0        4.254592    0.920358    0.352178
     11          7           0        3.983202   -0.302766    0.003536
     12          6           0        2.578472   -0.354936   -0.140424
     13          6           0        2.027811   -1.435989   -0.749147
     14          6           0        0.699567   -1.664376   -1.302512
     15          6           0       -0.541786   -1.651902   -0.779452
     16          8           0       -1.667220   -1.805809   -1.518010
     17          7           0       -2.620028    2.524627   -0.786407
     18          6           0       -3.474131    1.382783   -0.307478
     19          1           0        0.188302    2.982030   -0.866526
     20          1           0        0.056710    0.435198    0.830375
     21          1           0        3.050154    2.801250    0.784045
     22          1           0        5.276266    1.246133    0.518797
     23          1           0        2.765071   -2.186682   -1.032303
     24          1           0        0.743594   -1.925757   -2.364031
     25          1           0       -1.452012   -1.757232   -2.457312
     26          1           0       -4.552265    1.317294   -0.367906
 ---------------------------------------------------------------------

 SCF Done:  E(RB3LYP) =  -1158.16687853     A.U. after    1 cycles
