 Gaussian 16, Revision A.03,
 Gaussian 16:  ES64L-G16RevA.03 25-Dec-2016

 -----------------------------
 # opt freq b3lyp/6-31g(2df,p)
 -----------------------------

 -------------------
 Title Card Required
 -------------------
 Symbolic Z-matrix:
 Charge =  0 Multiplicity = 1

 SCF Done:  E(RB3LYP) =  -676.041054426     A.U. after   23 cycles
 SCF Done:  E(RB3LYP) =  -676.149210324     A.U. after   17 cycles
 SCF Done:  E(RB3LYP) =  -676.274198643     A.U. after   17 cycles
 SCF Done:  E(RB3LYP) =  -676.340447303     A.U. after   17 cycles
 SCF Done:  E(RB3LYP) =  -676.378656081     A.U. after   16 cycles
 SCF Done:  E(RB3LYP) =  -676.418507424     A.U. after   16 cycles
 SCF Done:  E(RB3LYP) =  -676.448318354     A.U. after   14 cycles
 SCF Done:  E(RB3LYP) =  -676.486094671     A.U. after   16 cycles
 SCF Done:  E(RB3LYP) =  -676.490967772     A.U. after   15 cycles
 SCF Done:  E(RB3LYP) =  -676.495915204     A.U. after   14 cycles
 SCF Done:  E(RB3LYP) =  -676.565062304     A.U. after   14 cycles
 SCF Done:  E(RB3LYP) =  -676.565985080     A.U. after   13 cycles
 SCF Done:  E(RB3LYP) =  -676.566344267     A.U. after   12 cycles
 SCF Done:  E(RB3LYP) =  -676.566488695     A.U. after   12 cycles
 SCF Done:  E(RB3LYP) =  -676.566537797     A.U. after   11 cycles
 SCF Done:  E(RB3LYP) =  -676.566548464     A.U. after    9 cycles
 SCF Done:  E(RB3LYP) =  -676.566553475     A.U. after    9 cycles
 SCF Done:  E(RB3LYP) =  -676.566555761     A.U. after    9 cycles
 SCF Done:  E(RB3LYP) =  -676.566556757     A.U. after    8 cycles
 Optimization completed.
    -- Stationary point found.
 Normal termination of Gaussian 16 at Wed May 17 13:10:32 2023.

 ----------------------------------------------------------------------
 #N Geom=AllCheck Guess=TCheck SCRF=Check GenChk RB3LYP/6-31G(2df,p) Fr
 eq
 ----------------------------------------------------------------------

 Structure from the checkpoint file:  "OdC1NdCdCdc2ncccocq[nH]2rdN1.chk"
 -------------------
 Title Card Required
 -------------------
 Charge =  0 Multiplicity = 1

                         Standard orientation:
 ---------------------------------------------------------------------
 Center     Atomic      Atomic             Coordinates (Angstroms)
 Number     Number       Type             X           Y           Z
 ---------------------------------------------------------------------
      1          8           0       -3.508353   -0.819779    0.662316
      2          6           0       -2.566645   -0.395732    0.062973
      3          7           0       -2.597476    0.929727   -0.565149
      4          6           0       -1.510959    1.503045   -0.528957
      5          6           0       -0.311087    1.964310   -0.451574
      6          6           0        0.684084    1.291964    0.170524
      7          7           0        1.998365    1.609877    0.168492
      8          6           0        2.950027    0.747247    0.181673
      9          6           0        2.964619   -0.696889    0.006348
     10          6           0        2.054463   -1.645376   -0.295118
     11          8           0        0.727435   -1.623302   -0.566007
     12          6           0       -0.219427   -0.869208    0.072003
     13          7           0        0.310474    0.077956    0.963309
     14          7           0       -1.417447   -1.130165   -0.234391
     15          1           0        3.947860    1.169887    0.308753
     16          1           0        3.963873   -1.115069    0.092792
     17          1           0        2.411802   -2.660734   -0.439347
     18          1           0       -0.404066    0.342643    1.634277
 ---------------------------------------------------------------------

 SCF Done:  E(RB3LYP) =  -676.566556757     A.U. after    1 cycles

 The electronic state is 1-A.
 Alpha  occ. eigenvalues --  -19.24073 -19.14115 -14.38549 -14.37357 -14.36826
 Alpha  occ. eigenvalues --  -14.35715 -10.36060 -10.34151 -10.31089 -10.30468
 Alpha  occ. eigenvalues --  -10.27941 -10.27857 -10.23318 -10.19828  -1.14893
 Alpha  occ. eigenvalues --   -1.07854  -1.01009  -0.97938  -0.95584  -0.91672
 Alpha  occ. eigenvalues --   -0.82872  -0.80382  -0.75604  -0.70079  -0.66893
 Alpha  occ. eigenvalues --   -0.62086  -0.60072  -0.58271  -0.56082  -0.54810
 Alpha  occ. eigenvalues --   -0.52727  -0.49700  -0.47462  -0.46813  -0.45927
 Alpha  occ. eigenvalues --   -0.44437  -0.41111  -0.40023  -0.39680  -0.37892
 Alpha  occ. eigenvalues --   -0.35593  -0.34431  -0.32833  -0.30501  -0.29835
 Alpha  occ. eigenvalues --   -0.28018  -0.25228  -0.24688
 Alpha virt. eigenvalues --   -0.12050  -0.06043  -0.05408  -0.01779   0.01987
 Alpha virt. eigenvalues --    0.04752   0.05951   0.08119   0.11078   0.11619
 Alpha virt. eigenvalues --    0.13469   0.15947   0.17383   0.18993   0.21765

 Mulliken charges:
               1
     1  O   -0.283538
     2  C    0.336672
     3  N   -0.340064
     4  C    0.361188
     5  C   -0.265376
     6  C    0.269016
     7  N   -0.252642
     8  C    0.017976
     9  C   -0.109062
    10  C    0.068933
    11  O   -0.201231
    12  C    0.380896
    13  N   -0.397029
    14  N   -0.266166
    15  H    0.136435
    16  H    0.122301
    17  H    0.150245
    18  H    0.271448
 Sum of Mulliken charges =  -0.00000

 Dipole moment (field-independent basis, Debye):
    X=              6.1932    Y=             -1.3195    Z=              1.0425  Tot=              6.4175
 Quadrupole moment (field-independent basis, Debye-Ang):
   XX=            -79.8586   YY=            -81.2234   ZZ=            -76.4543
   XY=             -8.7159   XZ=              0.6657   YZ=              2.6367

  Exact polarizability: 194.757  -0.246 111.162   4.923  -1.616  59.640
 Approx polarizability: 391.808  22.502 214.875  22.400  -1.957 108.978

                      1                      2                      3
                      A                      A                      A
 Frequencies --     82.2269                87.8964               118.2005
 Red. masses --      6.7517                 7.0952                10.5153
 Frc consts  --      0.0269                 0.0323                 0.0866
 IR Inten    --      2.5383                 1.4924                 3.0570

                      4                      5                      6
                      A                      A                      A
 Frequencies --    144.5701               209.1168               256.3183
 Red. masses --      8.6687                12.1130                 6.2964
 Frc consts  --      0.1067                 0.3121                 0.2437
 IR Inten    --      0.8935                 8.4028                 0.3159

                      7                      8                      9
                      A                      A                      A
 Frequencies --    277.4669               334.9068               401.4184
 Red. masses --      5.3242                 7.3764                 8.7397
 Frc consts  --      0.2415                 0.4875                 0.8297
 IR Inten    --      1.0899                 8.8093                 1.4686

                     10                     11                     12
                      A                      A                      A
 Frequencies --    408.9795               499.2564               525.4876
 Red. masses --      4.7410                 4.3370                 8.9338
 Frc consts  --      0.4672                 0.6369                 1.4535
 IR Inten    --      5.8363                12.6690                12.3825

                     13                     14                     15
                      A                      A                      A
 Frequencies --    552.0703               594.2028               610.8544
 Red. masses --     11.0985                 3.1152                 8.8583
 Frc consts  --      1.9930                 0.6480                 1.9475
 IR Inten    --      0.6177                15.3623                28.3109

                     16                     17                     18
                      A                      A                      A
 Frequencies --    651.8613               668.0616               673.7287
 Red. masses --      9.3232                 8.1960                 9.1078
 Frc consts  --      2.3341                 2.1552                 2.4358
 IR Inten    --     38.0088                 6.0171                 9.3853

                     19                     20                     21
                      A                      A                      A
 Frequencies --    695.8629               765.3847               790.5580
 Red. masses --      7.5704                 6.5529                 2.0544
 Frc consts  --      2.1598                 2.2618                 0.7565
 IR Inten    --      1.2093                29.6160                53.7075

                     22                     23                     24
                      A                      A                      A
 Frequencies --    798.4429               826.1797               864.0689
 Red. masses --      4.7041                 5.1377                 5.9169
 Frc consts  --      1.7669                 2.0662                 2.6028
 IR Inten    --     44.7159                14.2043                11.8039

                     25                     26                     27
                      A                      A                      A
 Frequencies --    878.6973               898.9477               944.6936
 Red. masses --      5.1400                 3.4387                 3.2693
 Frc consts  --      2.3383                 1.6372                 1.7190
 IR Inten    --     86.8516                23.9575                49.5405

                     28                     29                     30
                      A                      A                      A
 Frequencies --    983.0224               988.3416              1038.5758
 Red. masses --      1.3212                 1.5366                 5.0506
 Frc consts  --      0.7522                 0.8844                 3.2098
 IR Inten    --      0.6765                11.3338                34.6956

                     31                     32                     33
                      A                      A                      A
 Frequencies --   1090.2159              1190.6043              1214.1358
 Red. masses --      5.8091                 5.1004                 3.2783
 Frc consts  --      4.0680                 4.2598                 2.8473
 IR Inten    --    122.8527                43.7297                77.5760

                     34                     35                     36
                      A                      A                      A
 Frequencies --   1279.5499              1385.7043              1397.7160
 Red. masses --      4.0823                 1.4342                 1.3212
 Frc consts  --      3.9380                 1.6226                 1.5208
 IR Inten    --    164.9466                87.0198                40.9280

                     37                     38                     39
                      A                      A                      A
 Frequencies --   1454.8398              1471.0303              1613.2906
 Red. masses --      1.2752                 1.4101                 8.2243
 Frc consts  --      1.5902                 1.7978                12.6117
 IR Inten    --      8.4574                43.8331               312.2077

                     40                     41                     42
                      A                      A                      A
 Frequencies --   1646.0503              1700.0164              1721.6799
 Red. masses --      9.8394                 7.1023                11.5809
 Frc consts  --     15.7074                12.0935                20.2254
 IR Inten    --     71.8526               336.8740               137.7659

                     43                     44                     45
                      A                      A                      A
 Frequencies --   1840.5626              2055.9491              3116.9839
 Red. masses --     13.1618                12.2429                 1.0868
 Frc consts  --     26.2704                30.4901                 6.2210
 IR Inten    --    908.1312               889.5365                22.7234

                     46                     47                     48
                      A                      A                      A
 Frequencies --   3163.8527              3188.3061              3529.6113
 Red. masses --      1.0847                 1.0927                 1.0743
 Frc consts  --      6.3975                 6.5447                 7.8857
 IR Inten    --      2.3000                 9.9075                20.4876

 - Thermochemistry -
 -------------------
 Temperature   298.150 Kelvin.  Pressure   1.00000 Atm.
 Atom     1 has atomic number  8 and mass  15.99491

 Molecular mass:   188.03343 amu.
 Principal axes and moments of inertia in atomic units:
                           1         2         3
     Eigenvalues --  1142.394652993.080343839.49905
           X            0.99992  -0.01240  -0.00016
           Y            0.01240   0.99989   0.00824
           Z            0.00006  -0.00825   0.99997
 This molecule is an asymmetric top.
 Rotational symmetry number  1.
 Warning -- assumption of classical behavior for rotation
           may cause significant error
 Rotational temperatures (Kelvin)      0.07582     0.02894     0.02256
 Rotational constants (GHZ):           1.57979     0.60297     0.47005
 Zero-point vibrational energy     308813.0 (Joules/Mol)
                                   73.80807 (Kcal/Mol)
 Warning -- explicit consideration of  15 degrees of freedom as
           vibrations may cause significant error
 Vibrational temperatures:    118.31   126.46   170.06   208.00   300.87
          (Kelvin)            368.78   399.21   481.86   577.55   588.43
                              718.32   756.06   794.31   854.93   878.88
                              937.88   961.19   969.35  1001.19  1101.22
                             1137.44  1148.78  1188.69  1243.20  1264.25
                             1293.39  1359.20  1414.35  1422.00  1494.28
                             1568.58  1713.01  1746.87  1840.99  1993.72
                             2011.00  2093.19  2116.48  2321.17  2368.30
                             2445.94  2477.11  2648.16  2958.05  4484.64
                             4552.08  4587.26  5078.32

 Zero-point correction=                           0.117621 (Hartree/Particle)
 Thermal correction to Energy=                    0.127987
 Thermal correction to Enthalpy=                  0.128932
 Thermal correction to Gibbs Free Energy=         0.081230
 Sum of electronic and zero-point Energies=           -676.448936
 Sum of electronic and thermal Energies=              -676.438569
 Sum of electronic and thermal Enthalpies=            -676.437625
 Sum of electronic and thermal Free Energies=         -676.485327

                     E (Thermal)             CV                S
                      KCal/Mol        Cal/Mol-Kelvin    Cal/Mol-Kelvin
 Total                   80.313             39.931            100.397
 Electronic               0.000              0.000              0.000
 Translational            0.889              2.981             41.600
 Rotational               0.889              2.981             30.952
 Vibrational             78.536             33.970             27.844
 Vibration     1          0.600              1.961              3.837
 Vibration     2          0.601              1.958              3.706
 Vibration     3          0.608              1.934              3.130
 Vibration     4          0.616              1.909              2.742
 Vibration     5          0.642              1.827              2.051
 Vibration     6          0.666              1.752              1.687
 Vibration     7          0.678              1.715              1.549
 Vibration     8          0.716              1.606              1.236
 Vibration     9          0.767              1.467              0.957
 Vibration    10          0.773              1.451              0.930
 Vibration    11          0.855              1.252              0.660
 Vibration    12          0.880              1.194              0.597
 Vibration    13          0.907              1.135              0.540
 Vibration    14          0.952              1.044              0.460
 Vibration    15          0.970              1.009              0.431

                           ! Non-Optimized Parameters !
 Normal termination of Gaussian 16 at Wed May 17 14:18:03 2023.
