 Gaussian 16, Revision A.03,
 Gaussian 16:  ES64L-G16RevA.03 25-Dec-2016

 -----------------------------
 # opt freq b3lyp/6-31g(2df,p)
 -----------------------------

 -------------------
 Title Card Required
 -------------------
 Symbolic Z-matrix:
 Charge =  0 Multiplicity = 1

 SCF Done:  E(RB3LYP) =  -591.383994213     A.U. after   29 cycles
 SCF Done:  E(RB3LYP) =  -591.557851502     A.U. after   21 cycles
 SCF Done:  E(RB3LYP) =  -591.767910588     A.U. after   19 cycles
 SCF Done:  E(RB3LYP) =  -591.554465700     A.U. after   26 cycles
 SCF Done:  E(RB3LYP) =  -592.019992208     A.U. after   20 cycles
 SCF Done:  E(RB3LYP) =  -592.083224947     A.U. after   22 cycles
 SCF Done:  E(RB3LYP) =  -592.124572839     A.U. after   22 cycles
 SCF Done:  E(RB3LYP) =  -591.897019534     A.U. after   30 cycles
 SCF Done:  E(RB3LYP) =  -592.186284901     A.U. after   25 cycles
 SCF Done:  E(RB3LYP) =  -592.228079778     A.U. after   21 cycles
 SCF Done:  E(RB3LYP) =  -592.398809487     A.U. after   10 cycles
 SCF Done:  E(RB3LYP) =  -592.398813644     A.U. after    9 cycles
 SCF Done:  E(RB3LYP) =  -592.398816396     A.U. after   11 cycles
 SCF Done:  E(RB3LYP) =  -592.398816469     A.U. after   10 cycles
 SCF Done:  E(RB3LYP) =  -592.398819084     A.U. after    9 cycles
 SCF Done:  E(RB3LYP) =  -592.398819053     A.U. after    8 cycles
 SCF Done:  E(RB3LYP) =  -592.398819428     A.U. after    8 cycles
 SCF Done:  E(RB3LYP) =  -592.398819479     A.U. after    7 cycles
 SCF Done:  E(RB3LYP) =  -592.398819552     A.U. after    7 cycles
 Optimization completed.
    -- Stationary point found.
 Normal termination of Gaussian 16 at Fri May 19 23:23:35 2023.

 ----------------------------------------------------------------------
 #N Geom=AllCheck Guess=TCheck SCRF=Check GenChk RB3LYP/6-31G(2df,p) Fr
 eq
 ----------------------------------------------------------------------

 Structure from the checkpoint file:  "OdC1CdCCdCCdC2CdCNdCCdC12.chk"
 -------------------
 Title Card Required
 -------------------
 Charge =  0 Multiplicity = 1

                         Standard orientation:
 ---------------------------------------------------------------------
 Center     Atomic      Atomic             Coordinates (Angstroms)
 Number     Number       Type             X           Y           Z
 ---------------------------------------------------------------------
      1          8           0        5.339623    0.377552   -0.213866
      2          6           0        5.069851    0.319770   -1.481022
      3          6           0        4.358203    0.421696    0.844831
      4          6           0        3.221306   -0.194736    0.790921
      5          6           0        2.082434   -0.848159    0.700123
      6          6           0        0.848220   -0.298938    0.179520
      7          6           0       -0.303358   -0.998771    0.122130
      8          6           0       -1.573300   -0.473877   -0.347088
      9          6           0       -2.722090   -1.318771   -0.628889
     10          6           0       -3.974980   -0.939694   -0.229948
     11          7           0       -4.351436    0.120836    0.549579
     12          6           0       -3.845303    1.304968    0.564399
     13          6           0       -2.806871    1.737604   -0.391791
     14          6           0       -1.863000    0.828529   -0.523724
     15          1           0        4.748808    0.989469    1.679348
     16          1           0        3.947672    0.347220   -1.581404
     17          1           0        2.051445   -1.879720    1.054048
     18          1           0        0.869919    0.724030   -0.185597
     19          1           0       -0.307381   -2.037612    0.446107
     20          1           0       -2.602273   -2.294608   -1.096257
     21          1           0       -4.798619   -1.622030   -0.432344
     22          1           0       -4.227716    1.995891    1.319043
     23          1           0       -2.885460    2.673373   -0.935830
 ---------------------------------------------------------------------

 SCF Done:  E(RB3LYP) =  -592.398819552     A.U. after    1 cycles

 The electronic state is 1-A.
 Alpha  occ. eigenvalues --  -19.22523 -14.34876 -10.25663 -10.25415 -10.23364
 Alpha  occ. eigenvalues --  -10.23005 -10.22835 -10.22141 -10.21279 -10.21221
 Alpha  occ. eigenvalues --  -10.21102 -10.21033 -10.20983 -10.20869  -1.10288
 Alpha  occ. eigenvalues --   -0.95148  -0.85367  -0.82759  -0.79627  -0.78430
 Alpha  occ. eigenvalues --   -0.73846  -0.68947  -0.66378  -0.64702  -0.60101
 Alpha  occ. eigenvalues --   -0.55415  -0.53581  -0.52759  -0.51873  -0.50858
 Alpha  occ. eigenvalues --   -0.49449  -0.47664  -0.46186  -0.44917  -0.44101
 Alpha  occ. eigenvalues --   -0.42877  -0.40925  -0.38551  -0.38148  -0.37066
 Alpha  occ. eigenvalues --   -0.35664  -0.31654  -0.28904  -0.27755  -0.26936
 Alpha  occ. eigenvalues --   -0.25065  -0.22220  -0.20494
 Alpha virt. eigenvalues --   -0.08173  -0.05402  -0.04644  -0.03073   0.01728
 Alpha virt. eigenvalues --    0.02727   0.05552   0.08887   0.10653   0.11831
 Alpha virt. eigenvalues --    0.12435   0.13520   0.13940   0.14234   0.16211

 Mulliken charges:
               1
     1  O   -0.060419
     2  C   -0.201524
     3  C   -0.177972
     4  C    0.317771
     5  C   -0.309402
     6  C   -0.092589
     7  C   -0.135284
     8  C    0.152203
     9  C   -0.183853
    10  C    0.028736
    11  N   -0.188034
    12  C    0.000457
    13  C   -0.241967
    14  C    0.049635
    15  H    0.150085
    16  H    0.083351
    17  H    0.128782
    18  H    0.112170
    19  H    0.099528
    20  H    0.102572
    21  H    0.118327
    22  H    0.122535
    23  H    0.124893
 Sum of Mulliken charges =  -0.00000

 Dipole moment (field-independent basis, Debye):
    X=             -3.3383    Y=             -0.1545    Z=              1.9246  Tot=              3.8565
 Quadrupole moment (field-independent basis, Debye-Ang):
   XX=           -104.2965   YY=            -70.4163   ZZ=            -84.1297
   XY=             -1.4019   XZ=             16.6222   YZ=              1.6081

  Exact polarizability: 293.032   7.221 130.469  -2.215   1.916  92.378
 Approx polarizability: 419.000  19.652 245.495  -0.805   3.727 155.023

                      1                      2                      3
                      A                      A                      A
 Frequencies --     29.8026                42.9533                59.8770
 Red. masses --      5.7046                 7.0542                 4.3266
 Frc consts  --      0.0030                 0.0077                 0.0091
 IR Inten    --      1.3080                 2.6737                 0.0435

                      4                      5                      6
                      A                      A                      A
 Frequencies --     79.9074               107.8247               170.9986
 Red. masses --      6.3961                 3.0204                 4.8300
 Frc consts  --      0.0241                 0.0207                 0.0832
 IR Inten    --      1.2127                 5.3432                 0.2256

                      7                      8                      9
                      A                      A                      A
 Frequencies --    177.6319               234.3510               275.3840
 Red. masses --      3.1761                 3.0696                 3.6377
 Frc consts  --      0.0590                 0.0993                 0.1625
 IR Inten    --      3.1497                 6.9610                 4.3804

                     10                     11                     12
                      A                      A                      A
 Frequencies --    298.4685               309.2689               371.6161
 Red. masses --      3.8271                 2.9745                 3.7033
 Frc consts  --      0.2009                 0.1676                 0.3013
 IR Inten    --      7.9389                 3.8748                13.2507

                     13                     14                     15
                      A                      A                      A
 Frequencies --    388.8758               397.6424               454.8843
 Red. masses --      4.1329                 4.2922                 8.0704
 Frc consts  --      0.3682                 0.3999                 0.9839
 IR Inten    --     13.2419                16.7888                 8.2088

                     16                     17                     18
                      A                      A                      A
 Frequencies --    499.3235               555.9024               595.0106
 Red. masses --      5.2785                 3.3293                 4.1346
 Frc consts  --      0.7754                 0.6062                 0.8625
 IR Inten    --     16.5698                 5.0654                 3.9867

                     19                     20                     21
                      A                      A                      A
 Frequencies --    630.7203               656.4604               723.4590
 Red. masses --      4.0491                 2.7348                 2.1203
 Frc consts  --      0.9490                 0.6944                 0.6539
 IR Inten    --     19.4484                17.5567                 3.1030

                     22                     23                     24
                      A                      A                      A
 Frequencies --    746.7022               757.6484               791.5137
 Red. masses --      2.5668                 2.0442                 6.5684
 Frc consts  --      0.8432                 0.6914                 2.4245
 IR Inten    --     10.4693                25.6465                18.1624

                     25                     26                     27
                      A                      A                      A
 Frequencies --    808.6244               820.8739               836.1447
 Red. masses --      2.7876                 1.7318                 2.2783
 Frc consts  --      1.0739                 0.6875                 0.9385
 IR Inten    --     49.7098                14.2609                46.2928

                     28                     29                     30
                      A                      A                      A
 Frequencies --    867.8000               889.9276               922.4613
 Red. masses --      4.5512                 1.7026                 1.5088
 Frc consts  --      2.0194                 0.7945                 0.7564
 IR Inten    --      1.7931                 2.4435                14.4039

                     31                     32                     33
                      A                      A                      A
 Frequencies --    926.4113               978.6569               996.8857
 Red. masses --      1.6880                 1.3833                 2.6292
 Frc consts  --      0.8535                 0.7806                 1.5394
 IR Inten    --     29.2503                10.6863                 2.6852

                     34                     35                     36
                      A                      A                      A
 Frequencies --   1017.2670              1053.9246              1091.0007
 Red. masses --      1.0932                 2.2478                 3.1245
 Frc consts  --      0.6665                 1.4710                 2.1912
 IR Inten    --     29.1756                12.6693                11.7821

                     37                     38                     39
                      A                      A                      A
 Frequencies --   1162.6753              1202.9209              1229.6559
 Red. masses --      1.6866                 1.7734                 2.0124
 Frc consts  --      1.3433                 1.5119                 1.7928
 IR Inten    --      3.7239                25.1877                15.2384

                     40                     41                     42
                      A                      A                      A
 Frequencies --   1240.1591              1253.8988              1271.6750
 Red. masses --      1.6368                 1.2758                 1.6123
 Frc consts  --      1.4832                 1.1819                 1.5362
 IR Inten    --      7.5160                 5.7035                 4.5907

                     43                     44                     45
                      A                      A                      A
 Frequencies --   1321.0484              1346.7279              1352.5970
 Red. masses --      1.5171                 3.0709                 1.6820
 Frc consts  --      1.5599                 3.2815                 1.8130
 IR Inten    --      4.9650                24.1514                36.2122

                     46                     47                     48
                      A                      A                      A
 Frequencies --   1390.0427              1430.5537              1444.5718
 Red. masses --      1.4031                 1.3773                 1.7782
 Frc consts  --      1.5973                 1.6606                 2.1863
 IR Inten    --     50.1854                32.7814                17.7016

                     49                     50                     51
                      A                      A                      A
 Frequencies --   1461.4935              1548.0388              1610.8143
 Red. masses --      2.4573                 5.3395                 7.2309
 Frc consts  --      3.0925                 7.5389                11.0543
 IR Inten    --      3.9607                20.8981                53.0947

                     52                     53                     54
                      A                      A                      A
 Frequencies --   1660.9544              1857.2719              2030.5773
 Red. masses --      5.3635                 9.8381                10.2790
 Frc consts  --      8.7179                19.9945                24.9713
 IR Inten    --      2.4766                30.7611                18.0119

                     55                     56                     57
                      A                      A                      A
 Frequencies --   2747.3779              3101.3875              3114.3481
 Red. masses --      1.0799                 1.0878                 1.0861
 Frc consts  --      4.8024                 6.1645                 6.2064
 IR Inten    --     56.3537                48.6326                 3.9182

                     58                     59                     60
                      A                      A                      A
 Frequencies --   3132.5281              3150.1566              3153.1132
 Red. masses --      1.0836                 1.0894                 1.0927
 Frc consts  --      6.2646                 6.3695                 6.4009
 IR Inten    --      3.0220                12.5256                39.9435

                     61                     62                     63
                      A                      A                      A
 Frequencies --   3168.6734              3173.6108              3213.2808
 Red. masses --      1.0917                 1.0883                 1.0939
 Frc consts  --      6.4584                 6.4579                 6.6548
 IR Inten    --     16.5562                 6.2990                 4.6922

 - Thermochemistry -
 -------------------
 Temperature   298.150 Kelvin.  Pressure   1.00000 Atm.
 Atom     1 has atomic number  8 and mass  15.99491

 Molecular mass:   183.06841 amu.
 Principal axes and moments of inertia in atomic units:
                           1         2         3
     Eigenvalues --   842.459898020.376268289.36121
           X            1.00000   0.00049   0.00269
           Y           -0.00054   0.99982   0.01892
           Z           -0.00268  -0.01892   0.99982
 This molecule is an asymmetric top.
 Rotational symmetry number  1.
 Warning -- assumption of classical behavior for rotation
           may cause significant error
 Rotational temperatures (Kelvin)      0.10281     0.01080     0.01045
 Rotational constants (GHZ):           2.14223     0.22502     0.21772
 Zero-point vibrational energy     444630.2 (Joules/Mol)
                                  106.26916 (Kcal/Mol)
 Warning -- explicit consideration of  18 degrees of freedom as
           vibrations may cause significant error
 Vibrational temperatures:     42.88    61.80    86.15   114.97   155.14
          (Kelvin)            246.03   255.57   337.18   396.22   429.43
                              444.97   534.67   559.51   572.12   654.48
                              718.42   799.82   856.09   907.47   944.50
                             1040.90  1074.34  1090.09  1138.81  1163.43
                             1181.05  1203.03  1248.57  1280.41  1327.22
                             1332.90  1408.07  1434.30  1463.62  1516.36
                             1569.71  1672.83  1730.73  1769.20  1784.31
                             1804.08  1829.66  1900.69  1937.64  1946.09
                             1999.96  2058.25  2078.42  2102.76  2227.28
                             2317.60  2389.74  2672.20  2921.55  3952.86
                             4462.20  4480.85  4507.01  4532.37  4536.63
                             4559.01  4566.12  4623.19

 Zero-point correction=                           0.169351 (Hartree/Particle)
 Thermal correction to Energy=                    0.182421
 Thermal correction to Enthalpy=                  0.183365
 Thermal correction to Gibbs Free Energy=         0.127924
 Sum of electronic and zero-point Energies=           -592.229469
 Sum of electronic and thermal Energies=              -592.216398
 Sum of electronic and thermal Enthalpies=            -592.215454
 Sum of electronic and thermal Free Energies=         -592.270895

                     E (Thermal)             CV                S
                      KCal/Mol        Cal/Mol-Kelvin    Cal/Mol-Kelvin
 Total                  114.471             48.145            116.685
 Electronic               0.000              0.000              0.000
 Translational            0.889              2.981             41.520
 Rotational               0.889              2.981             32.393
 Vibrational            112.694             42.183             42.772
 Vibration     1          0.594              1.984              5.843
 Vibration     2          0.595              1.980              5.118
 Vibration     3          0.597              1.973              4.461
 Vibration     4          0.600              1.963              3.893
 Vibration     5          0.606              1.943              3.308
 Vibration     6          0.626              1.878              2.424
 Vibration     7          0.628              1.870              2.353
 Vibration     8          0.654              1.788              1.845
 Vibration     9          0.677              1.719              1.562
 Vibration    10          0.692              1.677              1.425
 Vibration    11          0.699              1.656              1.366
 Vibration    12          0.743              1.530              1.073
 Vibration    13          0.757              1.494              1.004
 Vibration    14          0.764              1.475              0.971
 Vibration    15          0.813              1.350              0.781
 Vibration    16          0.855              1.252              0.660
 Vibration    17          0.911              1.127              0.532
 Vibration    18          0.953              1.042              0.458

                           ! Non-Optimized Parameters !
 Normal termination of Gaussian 16 at Sat May 20 00:20:23 2023.
