 Gaussian 16, Revision A.03,
 Gaussian 16:  ES64L-G16RevA.03 25-Dec-2016

 -----------------------------
 # opt freq b3lyp/6-31g(2df,p)
 -----------------------------

 -------------------
 Title Card Required
 -------------------
 Symbolic Z-matrix:
 Charge =  0 Multiplicity = 1

 SCF Done:  E(RB3LYP) =  -1255.95479834     A.U. after   22 cycles
 SCF Done:  E(RB3LYP) =  -1256.01714150     A.U. after   17 cycles
 SCF Done:  E(RB3LYP) =  -1256.07402425     A.U. after   16 cycles
 SCF Done:  E(RB3LYP) =  -1256.08245428     A.U. after   15 cycles
 SCF Done:  E(RB3LYP) =  -1256.08789120     A.U. after   15 cycles
 SCF Done:  E(RB3LYP) =  -1256.09048325     A.U. after   15 cycles
 SCF Done:  E(RB3LYP) =  -1256.09273882     A.U. after   15 cycles
 SCF Done:  E(RB3LYP) =  -1256.09439896     A.U. after   16 cycles
 SCF Done:  E(RB3LYP) =  -1256.09473831     A.U. after   14 cycles
 SCF Done:  E(RB3LYP) =  -1256.09496994     A.U. after   13 cycles
 SCF Done:  E(RB3LYP) =  -1256.09502374     A.U. after   13 cycles
 SCF Done:  E(RB3LYP) =  -1256.09507048     A.U. after   13 cycles
 SCF Done:  E(RB3LYP) =  -1256.09509822     A.U. after   12 cycles
 SCF Done:  E(RB3LYP) =  -1256.09510469     A.U. after   10 cycles
 SCF Done:  E(RB3LYP) =  -1256.09511076     A.U. after   11 cycles
 SCF Done:  E(RB3LYP) =  -1256.09511268     A.U. after   11 cycles
 SCF Done:  E(RB3LYP) =  -1256.09511309     A.U. after    9 cycles
 Optimization completed.
    -- Stationary point found.
 Normal termination of Gaussian 16 at Thu May 18 22:52:18 2023.

 ----------------------------------------------------------------------
 #N Geom=AllCheck Guess=TCheck SCRF=Check GenChk RB3LYP/6-31G(2df,p) Fr
 eq
 ----------------------------------------------------------------------

 Structure from the checkpoint file:  "OdC1CdS2CdCC3dCCdC3CdC2S1.chk"
 -------------------
 Title Card Required
 -------------------
 Charge =  0 Multiplicity = 1

                         Standard orientation:
 ---------------------------------------------------------------------
 Center     Atomic      Atomic             Coordinates (Angstroms)
 Number     Number       Type             X           Y           Z
 ---------------------------------------------------------------------
      1          8           0       -4.113032    0.110742    0.402165
      2          6           0       -2.938923    0.202825    0.176780
      3          6           0       -2.074599    1.250885   -0.115282
      4         16           0       -0.460544    0.896744   -0.572713
      5          6           0        0.672860    1.959754    0.269143
      6          6           0        2.024968    1.744905    0.301465
      7          6           0        2.639026    0.513747    0.111311
      8          6           0        3.901603   -0.026970    0.159267
      9          6           0        3.405334   -1.397950   -0.006800
     10          6           0        2.098123   -0.960460   -0.060873
     11          6           0        0.832481   -1.522907   -0.084022
     12          6           0       -0.364378   -0.830168   -0.106615
     13         16           0       -1.929157   -1.501597    0.075921
     14          1           0       -2.440828    2.237020   -0.359351
     15          1           0        0.223361    2.936144    0.403505
     16          1           0        2.660762    2.597282    0.534339
     17          1           0        4.884394    0.396416    0.323872
     18          1           0        3.873667   -2.370958   -0.016863
     19          1           0        0.759160   -2.606146   -0.020388
 ---------------------------------------------------------------------

 SCF Done:  E(RB3LYP) =  -1256.09511309     A.U. after    1 cycles

 The electronic state is 1-A.
 Alpha  occ. eigenvalues --  -88.99654 -88.89248 -19.11541 -10.28011 -10.27463
 Alpha  occ. eigenvalues --  -10.23003 -10.22953 -10.22809 -10.22278 -10.21963
 Alpha  occ. eigenvalues --  -10.21706 -10.21313 -10.19468  -8.05014  -7.95650
 Alpha  occ. eigenvalues --   -6.01380  -6.01273  -6.00815  -5.92041  -5.91649
 Alpha  occ. eigenvalues --   -5.91382  -1.03171  -0.91684  -0.89621  -0.82841
 Alpha  occ. eigenvalues --   -0.79134  -0.75919  -0.70991  -0.68374  -0.63159
 Alpha  occ. eigenvalues --   -0.60366  -0.57153  -0.55799  -0.52872  -0.50039
 Alpha  occ. eigenvalues --   -0.48160  -0.47024  -0.45659  -0.43277  -0.42390
 Alpha  occ. eigenvalues --   -0.41433  -0.40105  -0.39770  -0.39392  -0.37723
 Alpha  occ. eigenvalues --   -0.36100  -0.34304  -0.33712  -0.29422  -0.25623
 Alpha  occ. eigenvalues --   -0.24929  -0.20459  -0.18548
 Alpha virt. eigenvalues --   -0.10726  -0.05285  -0.01971   0.01915   0.02433
 Alpha virt. eigenvalues --    0.03930   0.05722   0.07048   0.08172   0.10390
 Alpha virt. eigenvalues --    0.11529   0.12008   0.12871   0.13535   0.15262

 Mulliken charges:
               1
     1  O   -0.332836
     2  C    0.316344
     3  C   -0.348782
     4  S    0.279831
     5  C   -0.236361
     6  C   -0.166975
     7  C    0.260569
     8  C   -0.241993
     9  C   -0.272808
    10  C    0.295735
    11  C   -0.284501
    12  C    0.075410
    13  S   -0.128631
    14  H    0.134793
    15  H    0.143015
    16  H    0.117586
    17  H    0.132788
    18  H    0.128732
    19  H    0.128085
 Sum of Mulliken charges =   0.00000

 Dipole moment (field-independent basis, Debye):
    X=              6.4288    Y=              1.3527    Z=             -0.6246  Tot=              6.5992
 Quadrupole moment (field-independent basis, Debye-Ang):
   XX=            -96.3446   YY=            -77.4835   ZZ=            -90.8674
   XY=             -2.2654   XZ=              4.0736   YZ=             -0.0501

  Exact polarizability: 289.244  -5.462 159.435   1.654   2.278  66.078
 Approx polarizability: 682.032 -22.122 342.085   0.040   4.356 122.322

                      1                      2                      3
                      A                      A                      A
 Frequencies --     63.4653                81.0172               123.3453
 Red. masses --      8.2929                 6.6855                 6.3230
 Frc consts  --      0.0197                 0.0259                 0.0567
 IR Inten    --      0.6972                 0.4604                 0.7235

                      4                      5                      6
                      A                      A                      A
 Frequencies --    180.3908               215.6285               265.2929
 Red. masses --      6.1419                 4.1483                 5.7816
 Frc consts  --      0.1178                 0.1136                 0.2397
 IR Inten    --      1.8318                 6.5245                 6.3596

                      7                      8                      9
                      A                      A                      A
 Frequencies --    279.5266               286.4248               309.3653
 Red. masses --      8.3737                 6.9927                 3.4756
 Frc consts  --      0.3855                 0.3380                 0.1960
 IR Inten    --      5.6343                12.2818                 9.9534

                     10                     11                     12
                      A                      A                      A
 Frequencies --    324.0821               401.5753               421.3707
 Red. masses --     15.8681                 1.8313                 5.7620
 Frc consts  --      0.9819                 0.1740                 0.6028
 IR Inten    --     23.1975                22.8814                26.6830

                     13                     14                     15
                      A                      A                      A
 Frequencies --    439.5325               470.2253               485.7347
 Red. masses --      3.0069                 4.7520                 5.5417
 Frc consts  --      0.3423                 0.6191                 0.7704
 IR Inten    --      5.9564                14.5284                11.8526

                     16                     17                     18
                      A                      A                      A
 Frequencies --    517.5260               576.0789               605.3018
 Red. masses --      4.7121                 3.1970                 2.3029
 Frc consts  --      0.7436                 0.6251                 0.4971
 IR Inten    --     35.1725                21.8421                18.4889

                     19                     20                     21
                      A                      A                      A
 Frequencies --    615.7357               622.6580               677.5786
 Red. masses --      6.1695                 8.7460                 2.3039
 Frc consts  --      1.3781                 1.9978                 0.6232
 IR Inten    --     25.0929                 6.7049                 9.7041

                     22                     23                     24
                      A                      A                      A
 Frequencies --    693.5733               725.6781               753.6740
 Red. masses --      4.2578                 3.4713                 1.7014
 Frc consts  --      1.2068                 1.0770                 0.5694
 IR Inten    --      5.9936                 3.6508                12.5441

                     25                     26                     27
                      A                      A                      A
 Frequencies --    816.8952               848.3081               868.9043
 Red. masses --      5.1958                 1.5019                 1.9309
 Frc consts  --      2.0429                 0.6368                 0.8589
 IR Inten    --     12.2891                19.6464                65.8014

                     28                     29                     30
                      A                      A                      A
 Frequencies --    875.2279               908.4514               923.5938
 Red. masses --      5.0432                 1.6526                 3.5300
 Frc consts  --      2.2761                 0.8036                 1.7741
 IR Inten    --     79.0847                54.7302                32.4025

                     31                     32                     33
                      A                      A                      A
 Frequencies --    932.6689              1108.3613              1124.3080
 Red. masses --      1.6123                 1.4897                 1.6995
 Frc consts  --      0.8263                 1.0782                 1.2657
 IR Inten    --     31.4918                 9.8433                51.5883

                     34                     35                     36
                      A                      A                      A
 Frequencies --   1147.2125              1213.4171              1263.4018
 Red. masses --      1.7307                 1.7448                 1.7684
 Frc consts  --      1.3420                 1.5136                 1.6630
 IR Inten    --     12.5689               102.5864                11.1074

                     37                     38                     39
                      A                      A                      A
 Frequencies --   1268.2504              1273.1594              1322.9775
 Red. masses --      1.9419                 3.0344                 1.8537
 Frc consts  --      1.8403                 2.8979                 1.9116
 IR Inten    --      1.1371                14.1494                 2.3425

                     40                     41                     42
                      A                      A                      A
 Frequencies --   1332.7003              1490.3317              1512.0150
 Red. masses --      1.6673                 5.9494                 6.2554
 Frc consts  --      1.7448                 7.7856                 8.4259
 IR Inten    --      4.6762                47.4590                 6.6891

                     43                     44                     45
                      A                      A                      A
 Frequencies --   1583.9957              1655.9854              1861.9979
 Red. masses --      7.5882                 7.4614                12.6433
 Frc consts  --     11.2175                12.0555                25.8267
 IR Inten    --     80.3983                53.1536               901.9336

                     46                     47                     48
                      A                      A                      A
 Frequencies --   3144.0541              3153.7818              3208.8261
 Red. masses --      1.0863                 1.0871                 1.0910
 Frc consts  --      6.3267                 6.3708                 6.6188
 IR Inten    --     11.0312                 1.2636                 4.3687

                     49                     50                     51
                      A                      A                      A
 Frequencies --   3215.2995              3240.2076              3247.6996
 Red. masses --      1.0946                 1.0883                 1.1023
 Frc consts  --      6.6674                 6.7322                 6.8503
 IR Inten    --     12.2123                 3.8084                 0.9746

 - Thermochemistry -
 -------------------
 Temperature   298.150 Kelvin.  Pressure   1.00000 Atm.
 Atom     1 has atomic number  8 and mass  15.99491

 Molecular mass:   205.98601 amu.
 Principal axes and moments of inertia in atomic units:
                           1         2         3
     Eigenvalues --  1156.760874085.642375120.05994
           X            0.99996  -0.00838   0.00347
           Y            0.00836   0.99994   0.00672
           Z           -0.00352  -0.00669   0.99997
 This molecule is an asymmetric top.
 Rotational symmetry number  1.
 Warning -- assumption of classical behavior for rotation
           may cause significant error
 Rotational temperatures (Kelvin)      0.07488     0.02120     0.01692
 Rotational constants (GHZ):           1.56017     0.44173     0.35248
 Zero-point vibrational energy     327040.0 (Joules/Mol)
                                   78.16443 (Kcal/Mol)
 Warning -- explicit consideration of  19 degrees of freedom as
           vibrations may cause significant error
 Vibrational temperatures:     91.31   116.57   177.47   259.54   310.24
          (Kelvin)            381.70   402.18   412.10   445.11   466.28
                              577.78   606.26   632.39   676.55   698.86
                              744.60   828.85   870.89   885.91   895.87
                              974.88   997.90  1044.09  1084.37  1175.33
                             1220.53  1250.16  1259.26  1307.06  1328.85
                             1341.90  1594.68  1617.63  1650.58  1745.84
                             1817.75  1824.73  1831.79  1903.47  1917.46
                             2144.25  2175.45  2279.02  2382.59  2679.00
                             4523.59  4537.59  4616.79  4626.10  4661.94
                             4672.72

 Zero-point correction=                           0.124563 (Hartree/Particle)
 Thermal correction to Energy=                    0.136136
 Thermal correction to Enthalpy=                  0.137080
 Thermal correction to Gibbs Free Energy=         0.086983
 Sum of electronic and zero-point Energies=          -1255.970550
 Sum of electronic and thermal Energies=             -1255.958978
 Sum of electronic and thermal Enthalpies=           -1255.958033
 Sum of electronic and thermal Free Energies=        -1256.008130

                     E (Thermal)             CV                S
                      KCal/Mol        Cal/Mol-Kelvin    Cal/Mol-Kelvin
 Total                   85.426             45.027            105.438
 Electronic               0.000              0.000              0.000
 Translational            0.889              2.981             41.872
 Rotational               0.889              2.981             31.559
 Vibrational             83.649             39.065             32.007
 Vibration     1          0.597              1.972              4.346
 Vibration     2          0.600              1.962              3.866
 Vibration     3          0.610              1.930              3.047
 Vibration     4          0.629              1.866              2.324
 Vibration     5          0.645              1.817              1.995
 Vibration     6          0.671              1.737              1.627
 Vibration     7          0.680              1.711              1.537
 Vibration     8          0.684              1.699              1.495
 Vibration     9          0.699              1.656              1.366
 Vibration    10          0.709              1.627              1.289
 Vibration    11          0.767              1.467              0.957
 Vibration    12          0.784              1.424              0.887
 Vibration    13          0.800              1.384              0.828
 Vibration    14          0.827              1.316              0.737
 Vibration    15          0.842              1.282              0.695
 Vibration    16          0.873              1.211              0.616
 Vibration    17          0.932              1.083              0.493
 Vibration    18          0.964              1.021              0.441
 Vibration    19          0.975              0.999              0.423

                           ! Non-Optimized Parameters !
 Normal termination of Gaussian 16 at Thu May 18 23:45:32 2023.
