 Gaussian 16, Revision A.03,
 Gaussian 16:  ES64L-G16RevA.03 25-Dec-2016

 -----------------------------
 # opt freq b3lyp/6-31g(2df,p)
 -----------------------------

 -------------------
 Title Card Required
 -------------------
 Symbolic Z-matrix:
 Charge =  0 Multiplicity = 1

 SCF Done:  E(RB3LYP) =  -1236.08202009     A.U. after   31 cycles
 SCF Done:  E(RB3LYP) =  -1235.92745239     A.U. after   24 cycles
 SCF Done:  E(RB3LYP) =  -1236.10330861     A.U. after   21 cycles
 SCF Done:  E(RB3LYP) =  -1236.15939931     A.U. after   21 cycles
 SCF Done:  E(RB3LYP) =  -1236.19759011     A.U. after   21 cycles
 SCF Done:  E(RB3LYP) =  -1236.23779540     A.U. after   20 cycles
 SCF Done:  E(RB3LYP) =  -1236.26925667     A.U. after   22 cycles
 SCF Done:  E(RB3LYP) =  -1236.28414243     A.U. after   16 cycles
 SCF Done:  E(RB3LYP) =  -1236.28945714     A.U. after   18 cycles
 SCF Done:  E(RB3LYP) =  -1236.33290928     A.U. after   16 cycles
 SCF Done:  E(RB3LYP) =  -1236.41171038     A.U. after    9 cycles
 SCF Done:  E(RB3LYP) =  -1236.41171140     A.U. after    8 cycles
 SCF Done:  E(RB3LYP) =  -1236.41171230     A.U. after    8 cycles
 SCF Done:  E(RB3LYP) =  -1236.41171294     A.U. after    8 cycles
 SCF Done:  E(RB3LYP) =  -1236.41171343     A.U. after    8 cycles
 SCF Done:  E(RB3LYP) =  -1236.41171387     A.U. after    8 cycles
 SCF Done:  E(RB3LYP) =  -1236.41171427     A.U. after    8 cycles
 SCF Done:  E(RB3LYP) =  -1236.41171455     A.U. after    8 cycles
 SCF Done:  E(RB3LYP) =  -1236.41171468     A.U. after    8 cycles
 Optimization completed.
    -- Stationary point found.

 The electronic state is 1-A.
 Alpha  occ. eigenvalues --  -88.97752 -88.91318 -19.11631 -14.41618 -10.29061
 Alpha  occ. eigenvalues --  -10.26097 -10.23802 -10.22616 -10.21859 -10.20396
 Alpha  occ. eigenvalues --  -10.16557 -10.16483  -8.03435  -7.97375  -5.99706
 Alpha  occ. eigenvalues --   -5.99689  -5.99239  -5.93823  -5.93309  -5.93215
 Alpha  occ. eigenvalues --   -1.02321  -0.99459  -0.86376  -0.82714  -0.79847
 Alpha  occ. eigenvalues --   -0.74816  -0.70791  -0.67668  -0.64854  -0.61412
 Alpha  occ. eigenvalues --   -0.56442  -0.54311  -0.51873  -0.51103  -0.48811
 Alpha  occ. eigenvalues --   -0.47388  -0.46552  -0.44235  -0.43459  -0.41322
 Alpha  occ. eigenvalues --   -0.40446  -0.39735  -0.38234  -0.36783  -0.35061
 Alpha  occ. eigenvalues --   -0.32490  -0.29463  -0.28231  -0.24751  -0.23703
 Alpha  occ. eigenvalues --   -0.22053  -0.17462
 Alpha virt. eigenvalues --   -0.07049  -0.06201  -0.00934  -0.00254   0.02599
 Alpha virt. eigenvalues --    0.03083   0.04637   0.07095   0.08547   0.10395
 Alpha virt. eigenvalues --    0.10873   0.12022   0.13648   0.14422   0.14917

 Mulliken charges:
               1
     1  O   -0.360060
     2  C    0.297184
     3  C   -0.184226
     4  C   -0.234180
     5  S   -0.051774
     6  C    0.052741
     7  N   -0.205531
     8  C   -0.262235
     9  S    0.056802
    10  C   -0.320217
    11  C   -0.054214
    12  C   -0.131985
    13  H    0.110681
    14  H    0.176994
    15  H    0.276510
    16  H    0.131994
    17  H    0.151406
    18  H    0.180069
    19  H    0.146977
    20  H    0.099829
    21  H    0.123235
 Sum of Mulliken charges =  -0.00000

 Dipole moment (field-independent basis, Debye):
    X=              6.6916    Y=             -1.2946    Z=             -2.7681  Tot=              7.3564
 Quadrupole moment (field-independent basis, Debye-Ang):
   XX=            -95.9837   YY=            -87.7928   ZZ=            -81.1076
   XY=              0.1204   XZ=             -0.6329   YZ=             -2.2627

 Normal termination of Gaussian 16 at Thu May 18 04:58:32 2023.

 ----------------------------------------------------------------------
 #N Geom=AllCheck Guess=TCheck SCRF=Check GenChk RB3LYP/6-31G(2df,p) Fr
 eq
 ----------------------------------------------------------------------

 Structure from the checkpoint file:  "OdC1CdCdSdCNCd[SH]CCdC1.chk"
 -------------------
 Title Card Required
 -------------------
 Charge =  0 Multiplicity = 1

                         Standard orientation:
 ---------------------------------------------------------------------
 Center     Atomic      Atomic             Coordinates (Angstroms)
 Number     Number       Type             X           Y           Z
 ---------------------------------------------------------------------
      1          8           0       -0.980060    2.383321    0.981897
      2          6           0       -1.368814    1.505167    0.219345
      3          6           0       -2.621605    0.750502    0.485068
      4          6           0       -3.022520   -0.524462    0.240648
      5         16           0       -1.805106   -1.656799   -0.404365
      6          6           0       -0.297067   -1.309599    0.279420
      7          7           0        0.869394   -1.917218    0.091426
      8          6           0        2.091859   -1.463458    0.684327
      9         16           0        2.802305   -0.016897    0.181598
     10          6           0        1.723117    1.541613   -0.158101
     11          6           0        0.709533    1.329263   -1.223559
     12          6           0       -0.619845    1.253072   -1.062731
     13          1           0       -3.329700    1.373504    1.036928
     14          1           0       -0.278973   -0.528431    1.032793
     15          1           0        0.918372   -2.646873   -0.610271
     16          1           0        2.210025   -1.615545    1.750477
     17          1           0        3.056742   -0.200969   -1.141758
     18          1           0        1.291471    1.820167    0.802223
     19          1           0        2.485231    2.275797   -0.442251
     20          1           0        1.112722    1.157925   -2.221682
     21          1           0       -1.234309    1.004942   -1.923848
 ---------------------------------------------------------------------

 SCF Done:  E(RB3LYP) =  -1236.41171468     A.U. after    1 cycles
