 Gaussian 16, Revision A.03,
 Gaussian 16:  ES64L-G16RevA.03 25-Dec-2016

 -----------------------------
 # opt freq b3lyp/6-31g(2df,p)
 -----------------------------

 -------------------
 Title Card Required
 -------------------
 Symbolic Z-matrix:
 Charge =  0 Multiplicity = 1

 SCF Done:  E(RB3LYP) =  -872.926226340     A.U. after   18 cycles
 SCF Done:  E(RB3LYP) =  -872.982656138     A.U. after   15 cycles
 SCF Done:  E(RB3LYP) =  -873.019805513     A.U. after   15 cycles
 SCF Done:  E(RB3LYP) =  -873.037367327     A.U. after   14 cycles
 SCF Done:  E(RB3LYP) =  -873.055131985     A.U. after   14 cycles
 SCF Done:  E(RB3LYP) =  -873.067552699     A.U. after   13 cycles
 SCF Done:  E(RB3LYP) =  -873.074998764     A.U. after   13 cycles
 SCF Done:  E(RB3LYP) =  -873.077716046     A.U. after   13 cycles
 SCF Done:  E(RB3LYP) =  -873.079577868     A.U. after   13 cycles
 SCF Done:  E(RB3LYP) =  -873.080392075     A.U. after   13 cycles
 SCF Done:  E(RB3LYP) =  -873.080567864     A.U. after   12 cycles
 SCF Done:  E(RB3LYP) =  -873.080654527     A.U. after   11 cycles
 SCF Done:  E(RB3LYP) =  -873.080673672     A.U. after   10 cycles
 SCF Done:  E(RB3LYP) =  -873.080678926     A.U. after    9 cycles
 SCF Done:  E(RB3LYP) =  -873.080680735     A.U. after    8 cycles
 SCF Done:  E(RB3LYP) =  -873.080681877     A.U. after    8 cycles
 SCF Done:  E(RB3LYP) =  -873.080682372     A.U. after    8 cycles
 SCF Done:  E(RB3LYP) =  -873.080682687     A.U. after    8 cycles
 SCF Done:  E(RB3LYP) =  -873.080682834     A.U. after    7 cycles
 Optimization completed.
    -- Stationary point found.
 Normal termination of Gaussian 16 at Wed May 17 15:07:50 2023.

 ----------------------------------------------------------------------
 #N Geom=AllCheck Guess=TCheck SCRF=Check GenChk RB3LYP/6-31G(2df,p) Fr
 eq
 ----------------------------------------------------------------------

 Structure from the checkpoint file:  "OdC1CCSc2cqc2dOrCdN1.chk"
 -------------------
 Title Card Required
 -------------------
 Charge =  0 Multiplicity = 1

                         Standard orientation:
 ---------------------------------------------------------------------
 Center     Atomic      Atomic             Coordinates (Angstroms)
 Number     Number       Type             X           Y           Z
 ---------------------------------------------------------------------
      1          8           0       -1.630659    1.258903    1.535083
      2          6           0       -1.607577    0.891893    0.386574
      3          6           0       -2.258753   -0.407243   -0.076300
      4          6           0       -1.317503   -1.397774   -0.772277
      5         16           0        0.173499   -1.925754    0.189765
      6          6           0        1.134871   -0.526867    0.082721
      7          6           0        1.116328    0.760351   -0.364620
      8          6           0        2.363905    0.265293    0.103309
      9          8           0        3.528902    0.364479    0.351705
     10          6           0        0.165041    1.710195   -0.927594
     11          7           0       -1.072251    1.709972   -0.628753
     12          1           0       -3.059245   -0.157483   -0.784524
     13          1           0       -2.711547   -0.859249    0.808019
     14          1           0       -0.952578   -1.014411   -1.727276
     15          1           0       -1.843901   -2.334262   -0.973077
     16          1           0        0.533225    2.445509   -1.643289
 ---------------------------------------------------------------------

 SCF Done:  E(RB3LYP) =  -873.080682834     A.U. after    1 cycles

 The electronic state is 1-A.
 Alpha  occ. eigenvalues --  -88.93503 -19.14335 -19.13699 -14.37065 -10.30952
 Alpha  occ. eigenvalues --  -10.30382 -10.28386 -10.27013 -10.26038 -10.24658
 Alpha  occ. eigenvalues --  -10.22733  -7.99627  -5.96104  -5.95688  -5.95279
 Alpha  occ. eigenvalues --   -1.06822  -1.05121  -0.96216  -0.92347  -0.84943
 Alpha  occ. eigenvalues --   -0.77725  -0.72668  -0.66829  -0.61864  -0.54960
 Alpha  occ. eigenvalues --   -0.52696  -0.51580  -0.48293  -0.47905  -0.46607
 Alpha  occ. eigenvalues --   -0.45229  -0.44585  -0.42861  -0.42066  -0.40857
 Alpha  occ. eigenvalues --   -0.38878  -0.37047  -0.34559  -0.32913  -0.31739
 Alpha  occ. eigenvalues --   -0.27013  -0.26629  -0.25078
 Alpha virt. eigenvalues --   -0.09060  -0.02518  -0.00364   0.00269   0.03905
 Alpha virt. eigenvalues --    0.05154   0.07991   0.09696   0.11626   0.12777
 Alpha virt. eigenvalues --    0.13781   0.15035   0.16915   0.18189   0.19006

 Mulliken charges:
               1
     1  O   -0.295827
     2  C    0.372535
     3  C   -0.300528
     4  C   -0.242985
     5  S   -0.033890
     6  C   -0.025190
     7  C    0.064054
     8  C    0.337423
     9  O   -0.333335
    10  C   -0.099320
    11  N   -0.203976
    12  H    0.145869
    13  H    0.149687
    14  H    0.158287
    15  H    0.156440
    16  H    0.150756
 Sum of Mulliken charges =   0.00000

 Dipole moment (field-independent basis, Debye):
    X=             -3.4879    Y=             -2.1081    Z=             -3.6582  Tot=              5.4765
 Quadrupole moment (field-independent basis, Debye-Ang):
   XX=            -79.4738   YY=            -67.6822   ZZ=            -69.6997
   XY=              6.1973   XZ=              1.2080   YZ=             -2.9265

  Exact polarizability: 123.621   6.733 101.798   2.268  -6.868  72.070
 Approx polarizability: 209.654   8.766 177.221   7.236 -18.317 131.946

                      1                      2                      3
                      A                      A                      A
 Frequencies --     69.4470                79.7581               153.6897
 Red. masses --      8.6658                 8.6038                 9.3969
 Frc consts  --      0.0246                 0.0322                 0.1308
 IR Inten    --      1.8068                 2.3778                 4.5761

                      4                      5                      6
                      A                      A                      A
 Frequencies --    185.0063               204.5037               224.9634
 Red. masses --      5.3606                 5.1238                 5.1031
 Frc consts  --      0.1081                 0.1263                 0.1522
 IR Inten    --      0.8776                 2.3613                 0.5468

                      7                      8                      9
                      A                      A                      A
 Frequencies --    301.0994               341.7965               437.5699
 Red. masses --      2.9576                 5.2846                 3.8745
 Frc consts  --      0.1580                 0.3637                 0.4371
 IR Inten    --      2.3158                 3.6061                 0.8096

                     10                     11                     12
                      A                      A                      A
 Frequencies --    464.7792               528.9182               550.2103
 Red. masses --      4.7738                 6.5511                 8.8727
 Frc consts  --      0.6076                 1.0798                 1.5826
 IR Inten    --      0.1154                 7.0979                 8.2709

                     13                     14                     15
                      A                      A                      A
 Frequencies --    615.3145               635.5394               657.3243
 Red. masses --      5.4151                10.2872                 5.5505
 Frc consts  --      1.2080                 2.4481                 1.4130
 IR Inten    --      3.7762                 7.7266                12.6941

                     16                     17                     18
                      A                      A                      A
 Frequencies --    678.0132               710.6506               760.6982
 Red. masses --      4.6868                 3.5943                 6.0067
 Frc consts  --      1.2694                 1.0695                 2.0479
 IR Inten    --      8.0731                 9.0204                 9.4466

                     19                     20                     21
                      A                      A                      A
 Frequencies --    858.2228               931.2790               948.6155
 Red. masses --      2.9184                 2.3889                 2.2909
 Frc consts  --      1.2665                 1.2207                 1.2146
 IR Inten    --     11.2245                42.5713                27.7696

                     22                     23                     24
                      A                      A                      A
 Frequencies --    967.5468              1011.5728              1032.8226
 Red. masses --      2.0169                 5.1318                 3.0682
 Frc consts  --      1.1125                 3.0939                 1.9283
 IR Inten    --     25.0050                 0.6655                 2.2402

                     25                     26                     27
                      A                      A                      A
 Frequencies --   1104.1958              1127.1299              1204.1234
 Red. masses --      2.5306                 2.8648                 1.2971
 Frc consts  --      1.8179                 2.1444                 1.1080
 IR Inten    --     43.2331                 2.4606                 2.0514

                     28                     29                     30
                      A                      A                      A
 Frequencies --   1223.4714              1318.1000              1345.7992
 Red. masses --      1.6559                 1.2914                 1.3872
 Frc consts  --      1.4604                 1.3219                 1.4803
 IR Inten    --     23.4321                38.3885                 2.6192

                     31                     32                     33
                      A                      A                      A
 Frequencies --   1399.3964              1456.0795              1461.8712
 Red. masses --      1.3224                 1.0770                 1.0916
 Frc consts  --      1.5257                 1.3453                 1.3744
 IR Inten    --     22.5067                 7.0091                 5.5198

                     34                     35                     36
                      A                      A                      A
 Frequencies --   1627.3088              1688.6744              1800.2370
 Red. masses --     11.5886                10.9507                11.8498
 Frc consts  --     18.0809                18.3986                22.6267
 IR Inten    --    164.2098               117.5213               195.0429

                     37                     38                     39
                      A                      A                      A
 Frequencies --   1971.0751              3038.1734              3074.0328
 Red. masses --     12.7491                 1.0650                 1.0588
 Frc consts  --     29.1835                 5.7920                 5.8952
 IR Inten    --    846.3624                 3.9543                 7.1647

                     40                     41                     42
                      A                      A                      A
 Frequencies --   3117.8063              3128.6871              3133.1401
 Red. masses --      1.1014                 1.0893                 1.1024
 Frc consts  --      6.3078                 6.2822                 6.3760
 IR Inten    --      0.3744                19.6703                 3.2366

 - Thermochemistry -
 -------------------
 Temperature   298.150 Kelvin.  Pressure   1.00000 Atm.
 Atom     1 has atomic number  8 and mass  15.99491

 Molecular mass:   167.00410 amu.
 Principal axes and moments of inertia in atomic units:
                           1         2         3
     Eigenvalues --  1272.726582023.043642757.69553
           X            0.99897   0.04480   0.00704
           Y           -0.04479   0.99899  -0.00214
           Z           -0.00713   0.00182   0.99997
 This molecule is an asymmetric top.
 Rotational symmetry number  1.
 Warning -- assumption of classical behavior for rotation
           may cause significant error
 Rotational temperatures (Kelvin)      0.06805     0.04281     0.03141
 Rotational constants (GHZ):           1.41801     0.89209     0.65444
 Zero-point vibrational energy     284523.7 (Joules/Mol)
                                   68.00279 (Kcal/Mol)
 Warning -- explicit consideration of  13 degrees of freedom as
           vibrations may cause significant error
 Vibrational temperatures:     99.92   114.75   221.13   266.18   294.24
          (Kelvin)            323.67   433.21   491.77   629.57   668.71
                              761.00   791.63   885.30   914.40   945.74
                              975.51  1022.47  1094.48  1234.79  1339.90
                             1364.85  1392.08  1455.43  1486.00  1588.69
                             1621.69  1732.46  1760.30  1896.45  1936.30
                             2013.42  2094.97  2103.31  2341.33  2429.63
                             2590.14  2835.94  4371.25  4422.85  4485.83
                             4501.48  4507.89

 Zero-point correction=                           0.108369 (Hartree/Particle)
 Thermal correction to Energy=                    0.117912
 Thermal correction to Enthalpy=                  0.118856
 Thermal correction to Gibbs Free Energy=         0.072799
 Sum of electronic and zero-point Energies=           -872.972313
 Sum of electronic and thermal Energies=              -872.962771
 Sum of electronic and thermal Enthalpies=            -872.961827
 Sum of electronic and thermal Free Energies=         -873.007884

                     E (Thermal)             CV                S
                      KCal/Mol        Cal/Mol-Kelvin    Cal/Mol-Kelvin
 Total                   73.991             35.036             96.935
 Electronic               0.000              0.000              0.000
 Translational            0.889              2.981             41.247
 Rotational               0.889              2.981             30.341
 Vibrational             72.214             29.074             25.348
 Vibration     1          0.598              1.969              4.169
 Vibration     2          0.600              1.963              3.897
 Vibration     3          0.619              1.899              2.626
 Vibration     4          0.631              1.860              2.277
 Vibration     5          0.640              1.833              2.092
 Vibration     6          0.650              1.803              1.919
 Vibration     7          0.693              1.672              1.411
 Vibration     8          0.721              1.592              1.204
 Vibration     9          0.798              1.388              0.834
 Vibration    10          0.822              1.328              0.752
 Vibration    11          0.884              1.186              0.590
 Vibration    12          0.905              1.139              0.544
 Vibration    13          0.975              0.999              0.424

 Optimization completed.
    -- Stationary point found.
 Normal termination of Gaussian 16 at Wed May 17 15:40:52 2023.
