 Gaussian 16, Revision A.03,
 Gaussian 16:  ES64L-G16RevA.03 25-Dec-2016

 -----------------------------
 # opt freq b3lyp/6-31g(2df,p)
 -----------------------------

 -------------------
 Title Card Required
 -------------------
 Symbolic Z-matrix:
 Charge =  0 Multiplicity = 1

 SCF Done:  E(RB3LYP) =  -684.401191398     A.U. after   23 cycles
 SCF Done:  E(RB3LYP) =  -684.009810217     A.U. after   22 cycles
 SCF Done:  E(RB3LYP) =  -684.508496358     A.U. after   18 cycles
 SCF Done:  E(RB3LYP) =  -684.550364237     A.U. after   16 cycles
 SCF Done:  E(RB3LYP) =  -684.591055863     A.U. after   16 cycles
 SCF Done:  E(RB3LYP) =  -684.633123794     A.U. after   16 cycles
 SCF Done:  E(RB3LYP) =  -684.690684060     A.U. after   16 cycles
 SCF Done:  E(RB3LYP) =  -684.751503873     A.U. after   16 cycles
 SCF Done:  E(RB3LYP) =  -684.764634271     A.U. after   15 cycles
 SCF Done:  E(RB3LYP) =  -684.780687939     A.U. after   15 cycles
 SCF Done:  E(RB3LYP) =  -684.800522654     A.U. after    9 cycles
 SCF Done:  E(RB3LYP) =  -684.800526662     A.U. after    9 cycles
 SCF Done:  E(RB3LYP) =  -684.800534276     A.U. after    9 cycles
 SCF Done:  E(RB3LYP) =  -684.800541724     A.U. after    9 cycles
 SCF Done:  E(RB3LYP) =  -684.800550549     A.U. after    9 cycles
 SCF Done:  E(RB3LYP) =  -684.800552505     A.U. after    8 cycles
 SCF Done:  E(RB3LYP) =  -684.800553531     A.U. after    8 cycles
 SCF Done:  E(RB3LYP) =  -684.800553799     A.U. after    8 cycles
 SCF Done:  E(RB3LYP) =  -684.800553849     A.U. after    7 cycles
 Optimization completed.
    -- Stationary point found.

 The electronic state is 1-A.
 Alpha  occ. eigenvalues --  -19.12487 -14.35664 -14.30895 -10.27470 -10.26400
 Alpha  occ. eigenvalues --  -10.26035 -10.24768 -10.24561 -10.23807 -10.22765
 Alpha  occ. eigenvalues --  -10.22528 -10.21988 -10.21830 -10.21291 -10.20363
 Alpha  occ. eigenvalues --  -10.20161  -1.03971  -0.96230  -0.93857  -0.87020
 Alpha  occ. eigenvalues --   -0.84116  -0.81086  -0.76425  -0.76072  -0.70430
 Alpha  occ. eigenvalues --   -0.68728  -0.62700  -0.61101  -0.57654  -0.56153
 Alpha  occ. eigenvalues --   -0.53863  -0.53672  -0.51922  -0.49663  -0.47685
 Alpha  occ. eigenvalues --   -0.46205  -0.45081  -0.43716  -0.43077  -0.42698
 Alpha  occ. eigenvalues --   -0.41585  -0.41355  -0.40415  -0.38418  -0.36304
 Alpha  occ. eigenvalues --   -0.35267  -0.33720  -0.31086  -0.29328  -0.27970
 Alpha  occ. eigenvalues --   -0.27502  -0.25354  -0.23913  -0.22099
 Alpha virt. eigenvalues --   -0.10777  -0.09775  -0.06503  -0.02844   0.05268
 Alpha virt. eigenvalues --    0.06695   0.07508   0.08890   0.10649   0.11320
 Alpha virt. eigenvalues --    0.12483   0.13353   0.14668   0.14815   0.15408

 Mulliken charges:
               1
     1  O   -0.304806
     2  C    0.411088
     3  C   -0.457677
     4  C    0.329339
     5  C   -0.208911
     6  C   -0.229000
     7  C    0.213750
     8  C   -0.193524
     9  C   -0.071467
    10  C   -0.119876
    11  C    0.016062
    12  N   -0.277639
    13  C    0.221701
    14  C   -0.216074
    15  C    0.270718
    16  N   -0.377442
    17  H    0.134890
    18  H    0.123000
    19  H    0.126713
    20  H    0.117662
    21  H    0.121213
    22  H    0.116702
    23  H    0.124939
    24  H    0.128642
 Sum of Mulliken charges =  -0.00000

 Dipole moment (field-independent basis, Debye):
    X=             -7.8513    Y=             -3.9579    Z=             -0.6435  Tot=              8.8159
 Quadrupole moment (field-independent basis, Debye-Ang):
   XX=            -95.6846   YY=            -90.0316   ZZ=            -88.5098
   XY=            -10.1765   XZ=              5.0502   YZ=              1.2499

 Normal termination of Gaussian 16 at Mon May 15 23:01:39 2023.

 ----------------------------------------------------------------------
 #N Geom=AllCheck Guess=TCheck SCRF=Check GenChk RB3LYP/6-31G(2df,p) Fr
 eq
 ----------------------------------------------------------------------

 Structure from the checkpoint file:  "Odc1cc2ccc3ccccnc-3cc-2n1.chk"
 -------------------
 Title Card Required
 -------------------
 Charge =  0 Multiplicity = 1

                         Standard orientation:
 ---------------------------------------------------------------------
 Center     Atomic      Atomic             Coordinates (Angstroms)
 Number     Number       Type             X           Y           Z
 ---------------------------------------------------------------------
      1          8           0        4.846385    0.738755   -0.330783
      2          6           0        3.700260    0.387064   -0.213818
      3          6           0        3.202482   -1.044746   -0.207248
      4          6           0        1.884717   -0.980612   -0.025375
      5          6           0        0.677441   -1.799348   -0.051312
      6          6           0       -0.221291   -1.472367    0.899211
      7          6           0       -1.453313   -0.829304    0.423987
      8          6           0       -2.592109   -1.434564    0.008411
      9          6           0       -3.731312   -0.818014   -0.607707
     10          6           0       -4.035348    0.503294   -0.618034
     11          6           0       -3.282161    1.550529    0.033108
     12          7           0       -2.055824    1.601479    0.421115
     13          6           0       -1.092400    0.608604    0.299840
     14          6           0        0.210477    1.089571    0.207718
     15          6           0        1.535233    0.513876    0.058645
     16          7           0        2.585575    1.271141   -0.066940
     17          1           0        3.845978   -1.904164   -0.325121
     18          1           0        0.341222   -2.164199   -1.021132
     19          1           0        0.173847   -1.034136    1.814054
     20          1           0       -2.634746   -2.513950    0.125056
     21          1           0       -4.450845   -1.499881   -1.054206
     22          1           0       -4.975787    0.813646   -1.064032
     23          1           0       -3.850618    2.465714    0.218973
     24          1           0        0.255545    2.174694    0.228883
 ---------------------------------------------------------------------

 SCF Done:  E(RB3LYP) =  -684.800553849     A.U. after    1 cycles
