 Gaussian 16, Revision A.03,
 Gaussian 16:  ES64L-G16RevA.03 25-Dec-2016

 -----------------------------
 # opt freq b3lyp/6-31g(2df,p)
 -----------------------------

 -------------------
 Title Card Required
 -------------------
 Symbolic Z-matrix:
 Charge =  0 Multiplicity = 1

 SCF Done:  E(RB3LYP) =  -501.258702865     A.U. after   25 cycles
 SCF Done:  E(RB3LYP) =  -501.293485074     A.U. after   17 cycles
 SCF Done:  E(RB3LYP) =  -501.317585670     A.U. after   17 cycles
 SCF Done:  E(RB3LYP) =  -501.338225002     A.U. after   15 cycles
 SCF Done:  E(RB3LYP) =  -501.358964861     A.U. after   15 cycles
 SCF Done:  E(RB3LYP) =  -501.370362260     A.U. after   14 cycles
 SCF Done:  E(RB3LYP) =  -501.374496022     A.U. after   11 cycles
 SCF Done:  E(RB3LYP) =  -501.407024333     A.U. after   14 cycles
 SCF Done:  E(RB3LYP) =  -501.410681202     A.U. after   13 cycles
 SCF Done:  E(RB3LYP) =  -501.424270845     A.U. after   13 cycles
 SCF Done:  E(RB3LYP) =  -501.452390535     A.U. after   14 cycles
 SCF Done:  E(RB3LYP) =  -501.452635811     A.U. after   13 cycles
 SCF Done:  E(RB3LYP) =  -501.452708501     A.U. after   13 cycles
 SCF Done:  E(RB3LYP) =  -501.452726227     A.U. after   11 cycles
 SCF Done:  E(RB3LYP) =  -501.452731470     A.U. after    9 cycles
 SCF Done:  E(RB3LYP) =  -501.452732697     A.U. after    9 cycles
 SCF Done:  E(RB3LYP) =  -501.452733215     A.U. after    8 cycles
 SCF Done:  E(RB3LYP) =  -501.452733895     A.U. after    8 cycles
 SCF Done:  E(RB3LYP) =  -501.452734019     A.U. after    8 cycles
 Optimization completed.
    -- Stationary point found.
 Normal termination of Gaussian 16 at Sat May 20 00:14:46 2023.

 ----------------------------------------------------------------------
 #N Geom=AllCheck Guess=TCheck SCRF=Check GenChk RB3LYP/6-31G(2df,p) Fr
 eq
 ----------------------------------------------------------------------

 Structure from the checkpoint file:  "OdC[C]CCCdCC1CdCdCC1.chk"
 -------------------
 Title Card Required
 -------------------
 Charge =  0 Multiplicity = 1

                         Standard orientation:
 ---------------------------------------------------------------------
 Center     Atomic      Atomic             Coordinates (Angstroms)
 Number     Number       Type             X           Y           Z
 ---------------------------------------------------------------------
      1          8           0       -4.976891   -1.274459    0.455158
      2          6           0       -4.458148   -0.243560    0.283029
      3          6           0       -3.887178    0.919901    0.090892
      4          6           0       -2.423847    1.121782   -0.244641
      5          6           0       -1.617464   -0.186190   -0.335519
      6          6           0       -0.187136    0.051086   -0.721898
      7          6           0        0.876090   -0.258344    0.020317
      8          6           0        2.299637   -0.011514   -0.366088
      9          6           0        3.211770   -1.230543   -0.212064
     10          6           0        4.488294   -0.861960    0.070693
     11          6           0        4.508435    0.464604    0.369410
     12          6           0        3.108726    0.986112    0.599940
     13          1           0       -4.540116    1.780882    0.189809
     14          1           0       -1.964069    1.772426    0.510428
     15          1           0       -2.344195    1.661685   -1.198094
     16          1           0       -2.093179   -0.838674   -1.081938
     17          1           0       -1.662132   -0.715851    0.623188
     18          1           0       -0.030026    0.527818   -1.690672
     19          1           0        0.723036   -0.728373    0.993292
     20          1           0        2.331475    0.420060   -1.375007
     21          1           0        2.795483   -2.233718   -0.162319
     22          1           0        5.356035    1.136923    0.260156
     23          1           0        2.998749    2.046928    0.343984
     24          1           0        2.728982    0.857320    1.621475
 ---------------------------------------------------------------------

 SCF Done:  E(RB3LYP) =  -501.452734019     A.U. after    1 cycles

 The electronic state is 1-A.
 Alpha  occ. eigenvalues --  -19.20103 -10.29432 -10.20998 -10.20980 -10.20813
 Alpha  occ. eigenvalues --  -10.20529 -10.20299 -10.19954 -10.19636 -10.19270
 Alpha  occ. eigenvalues --  -10.19149 -10.15324  -1.10629  -0.86074  -0.82776
 Alpha  occ. eigenvalues --   -0.79104  -0.74046  -0.70356  -0.68658  -0.63434
 Alpha  occ. eigenvalues --   -0.57882  -0.56405  -0.52187  -0.52133  -0.49160
 Alpha  occ. eigenvalues --   -0.48415  -0.47157  -0.46047  -0.45247  -0.43481
 Alpha  occ. eigenvalues --   -0.42270  -0.40158  -0.38769  -0.38134  -0.37880
 Alpha  occ. eigenvalues --   -0.36820  -0.36516  -0.35564  -0.34387  -0.27410
 Alpha  occ. eigenvalues --   -0.25863  -0.22733  -0.19481
 Alpha virt. eigenvalues --   -0.08895  -0.03320   0.01308   0.05640   0.07234
 Alpha virt. eigenvalues --    0.09661   0.10219   0.11329   0.12019   0.13279
 Alpha virt. eigenvalues --    0.13583   0.13974   0.15770   0.16327   0.17257

 Mulliken charges:
               1
     1  O   -0.235846
     2  C    0.467936
     3  C   -0.398707
     4  C   -0.202521
     5  C   -0.264147
     6  C   -0.060928
     7  C   -0.051968
     8  C   -0.063019
     9  C   -0.051970
    10  C   -0.154592
    11  C   -0.047118
    12  C   -0.260006
    13  H    0.139460
    14  H    0.118780
    15  H    0.114641
    16  H    0.119550
    17  H    0.112118
    18  H    0.085660
    19  H    0.086143
    20  H    0.096366
    21  H    0.108285
    22  H    0.109905
    23  H    0.104887
    24  H    0.127090
 Sum of Mulliken charges =  -0.00000

 Dipole moment (field-independent basis, Debye):
    X=             -1.2928    Y=              2.9362    Z=             -0.2972  Tot=              3.2219
 Quadrupole moment (field-independent basis, Debye-Ang):
   XX=            -90.4085   YY=            -70.8711   ZZ=            -70.2769
   XY=              1.4329   XZ=              1.4228   YZ=              0.0594

  Exact polarizability: 176.269   7.314 114.624   6.442  -1.920  79.517
 Approx polarizability: 234.606  18.192 211.925  13.162  -5.308 130.259

                      1                      2                      3
                      A                      A                      A
 Frequencies --     25.0887                39.5024                56.8143
 Red. masses --      4.9510                 3.9392                 4.9509
 Frc consts  --      0.0018                 0.0036                 0.0094
 IR Inten    --      0.3607                 0.2321                 1.1347

                      4                      5                      6
                      A                      A                      A
 Frequencies --     92.1981               114.0623               124.1329
 Red. masses --      4.1300                 2.6231                 2.8489
 Frc consts  --      0.0207                 0.0201                 0.0259
 IR Inten    --      1.9754                 0.9541                 0.5037

                      7                      8                      9
                      A                      A                      A
 Frequencies --    136.5029               238.9913               290.5461
 Red. masses --      3.0530                 2.2404                 4.6499
 Frc consts  --      0.0335                 0.0754                 0.2313
 IR Inten    --      0.7458                 2.8343                 3.5891

                     10                     11                     12
                      A                      A                      A
 Frequencies --    301.7031               389.9141               402.0673
 Red. masses --      2.6699                 2.5684                 3.3277
 Frc consts  --      0.1432                 0.2301                 0.3170
 IR Inten    --      0.6682                 6.5422                 7.0730

                     13                     14                     15
                      A                      A                      A
 Frequencies --    471.8145               488.5137               506.0238
 Red. masses --      2.2135                 3.9716                 1.3067
 Frc consts  --      0.2903                 0.5584                 0.1971
 IR Inten    --     10.9207                 6.7099                25.7566

                     16                     17                     18
                      A                      A                      A
 Frequencies --    555.5881               603.1835               646.0068
 Red. masses --      7.6555                 3.9048                 2.6503
 Frc consts  --      1.3923                 0.8370                 0.6517
 IR Inten    --     24.2274               105.4490                 2.1067

                     19                     20                     21
                      A                      A                      A
 Frequencies --    715.1918               777.8571               800.3341
 Red. masses --      4.7179                 1.2493                 1.8713
 Frc consts  --      1.4218                 0.4454                 0.7062
 IR Inten    --      4.2778                 3.0971                27.7491

                     22                     23                     24
                      A                      A                      A
 Frequencies --    809.2461               862.2078               875.6939
 Red. masses --      2.5728                 2.0633                 1.5099
 Frc consts  --      0.9927                 0.9037                 0.6822
 IR Inten    --     13.9949                 2.5557                 3.2138

                     25                     26                     27
                      A                      A                      A
 Frequencies --    910.3927               940.5604               985.8807
 Red. masses --      3.1067                 2.5176                 2.8830
 Frc consts  --      1.5171                 1.3122                 1.6510
 IR Inten    --      1.3909                13.5776                 8.1265

                     28                     29                     30
                      A                      A                      A
 Frequencies --    996.8726              1006.3391              1024.7631
 Red. masses --      2.6177                 1.8418                 1.1561
 Frc consts  --      1.5326                 1.0990                 0.7153
 IR Inten    --      4.5580                13.4629                21.3650

                     31                     32                     33
                      A                      A                      A
 Frequencies --   1049.2961              1100.0997              1105.2744
 Red. masses --      3.3791                 2.0441                 1.7141
 Frc consts  --      2.1920                 1.4575                 1.2338
 IR Inten    --      1.8911                 1.4240                 2.0351

                     34                     35                     36
                      A                      A                      A
 Frequencies --   1143.0387              1149.5004              1167.4111
 Red. masses --      1.4835                 1.4588                 1.2626
 Frc consts  --      1.1420                 1.1357                 1.0139
 IR Inten    --      3.7069                 3.6891                11.0155

                     37                     38                     39
                      A                      A                      A
 Frequencies --   1194.9839              1208.2765              1247.4947
 Red. masses --      1.5045                 1.2232                 1.2703
 Frc consts  --      1.2658                 1.0522                 1.1647
 IR Inten    --      7.7407                11.7201                12.3673

                     40                     41                     42
                      A                      A                      A
 Frequencies --   1258.9837              1274.1039              1285.1937
 Red. masses --      1.3345                 1.4336                 1.4357
 Frc consts  --      1.2462                 1.3711                 1.3972
 IR Inten    --      0.1088                38.0515                 4.6080

                     43                     44                     45
                      A                      A                      A
 Frequencies --   1305.6271              1336.7053              1358.7904
 Red. masses --      1.1375                 1.2591                 1.5201
 Frc consts  --      1.1424                 1.3255                 1.6536
 IR Inten    --      2.3611                 0.7748                13.4768

                     46                     47                     48
                      A                      A                      A
 Frequencies --   1388.6007              1423.7694              1424.5342
 Red. masses --      1.5862                 2.5339                 2.7548
 Frc consts  --      1.8020                 3.0264                 3.2938
 IR Inten    --      4.1751                 7.0434                24.5325

                     49                     50                     51
                      A                      A                      A
 Frequencies --   1472.6220              1483.0893              1502.1782
 Red. masses --      1.1230                 1.0973                 1.1011
 Frc consts  --      1.4349                 1.4221                 1.4639
 IR Inten    --      1.4967                 2.9423                 1.2438

                     52                     53                     54
                      A                      A                      A
 Frequencies --   1560.0120              1730.4696              2227.1789
 Red. masses --      8.5733                 6.3273                12.2094
 Frc consts  --     12.2929                11.1635                35.6826
 IR Inten    --     36.2807                14.7754               581.1163

                     55                     56                     57
                      A                      A                      A
 Frequencies --   3002.8547              3010.7603              3019.2102
 Red. masses --      1.0618                 1.0640                 1.0814
 Frc consts  --      5.6410                 5.6825                 5.8082
 IR Inten    --      4.2605                45.2521                 9.7119

                     58                     59                     60
                      A                      A                      A
 Frequencies --   3022.6544              3035.8862              3065.5585
 Red. masses --      1.0607                 1.0962                 1.0989
 Frc consts  --      5.7097                 5.9524                 6.0843
 IR Inten    --     31.2090                17.1953                22.7041

                     61                     62                     63
                      A                      A                      A
 Frequencies --   3068.0775              3113.1429              3120.0119
 Red. masses --      1.1027                 1.0897                 1.0860
 Frc consts  --      6.1154                 6.2221                 6.2287
 IR Inten    --     18.1374                 1.9899                37.1832

                     64                     65                     66
                      A                      A                      A
 Frequencies --   3158.2811              3162.1362              3182.9438
 Red. masses --      1.0900                 1.0910                 1.0853
 Frc consts  --      6.4061                 6.4272                 6.4784
 IR Inten    --     14.7825                33.1733                 6.9817

 - Thermochemistry -
 -------------------
 Temperature   298.150 Kelvin.  Pressure   1.00000 Atm.
 Atom     1 has atomic number  8 and mass  15.99491

 Molecular mass:   160.08882 amu.
 Principal axes and moments of inertia in atomic units:
                           1         2         3
     Eigenvalues --   534.931956591.743796892.41085
           X            0.99999  -0.00210   0.00339
           Y            0.00209   0.99999   0.00263
           Z           -0.00340  -0.00262   0.99999
 This molecule is an asymmetric top.
 Rotational symmetry number  1.
 Warning -- assumption of classical behavior for rotation
           may cause significant error
 Rotational temperatures (Kelvin)      0.16192     0.01314     0.01257
 Rotational constants (GHZ):           3.37378     0.27379     0.26184
 Zero-point vibrational energy     511683.2 (Joules/Mol)
                                  122.29521 (Kcal/Mol)
 Warning -- explicit consideration of  17 degrees of freedom as
           vibrations may cause significant error
 Vibrational temperatures:     36.10    56.84    81.74   132.65   164.11
          (Kelvin)            178.60   196.40   343.86   418.03   434.08
                              561.00   578.49   678.84   702.86   728.06
                              799.37   867.85   929.46  1029.00  1119.16
                             1151.50  1164.32  1240.52  1259.93  1309.85
                             1353.26  1418.46  1434.28  1447.90  1474.41
                             1509.70  1582.80  1590.24  1644.58  1653.87
                             1679.64  1719.32  1738.44  1794.87  1811.40
                             1833.15  1849.11  1878.51  1923.22  1955.00
                             1997.89  2048.49  2049.59  2118.77  2133.83
                             2161.30  2244.51  2489.76  3204.41  4320.44
                             4331.81  4343.97  4348.93  4367.96  4410.65
                             4414.28  4479.12  4489.00  4544.06  4549.61
                             4579.55

 Zero-point correction=                           0.194890 (Hartree/Particle)
 Thermal correction to Energy=                    0.207269
 Thermal correction to Enthalpy=                  0.208213
 Thermal correction to Gibbs Free Energy=         0.154015
 Sum of electronic and zero-point Energies=           -501.257844
 Sum of electronic and thermal Energies=              -501.245465
 Sum of electronic and thermal Enthalpies=            -501.244521
 Sum of electronic and thermal Free Energies=         -501.298720

                     E (Thermal)             CV                S
                      KCal/Mol        Cal/Mol-Kelvin    Cal/Mol-Kelvin
 Total                  130.063             44.647            114.070
 Electronic               0.000              0.000              0.000
 Translational            0.889              2.981             41.121
 Rotational               0.889              2.981             31.564
 Vibrational            128.286             38.685             41.386
 Vibration     1          0.593              1.985              6.184
 Vibration     2          0.594              1.981              5.284
 Vibration     3          0.596              1.975              4.565
 Vibration     4          0.602              1.955              3.613
 Vibration     5          0.607              1.938              3.199
 Vibration     6          0.610              1.929              3.035
 Vibration     7          0.614              1.917              2.852
 Vibration     8          0.657              1.781              1.810
 Vibration     9          0.687              1.691              1.471
 Vibration    10          0.694              1.670              1.407
 Vibration    11          0.758              1.492              1.000
 Vibration    12          0.768              1.466              0.955
 Vibration    13          0.829              1.313              0.732
 Vibration    14          0.844              1.276              0.687
 Vibration    15          0.861              1.237              0.643
 Vibration    16          0.911              1.127              0.533
 Vibration    17          0.962              1.025              0.444

                           ! Non-Optimized Parameters !
 Normal termination of Gaussian 16 at Sat May 20 01:00:27 2023.
