 Gaussian 16, Revision A.03,
 Gaussian 16:  ES64L-G16RevA.03 25-Dec-2016

 -----------------------------
 # opt freq b3lyp/6-31g(2df,p)
 -----------------------------

 -------------------
 Title Card Required
 -------------------
 Symbolic Z-matrix:
 Charge =  0 Multiplicity = 2

 SCF Done:  E(UB3LYP) =  -1234.44526641     A.U. after   29 cycles
 SCF Done:  E(UB3LYP) =  -1234.51607533     A.U. after   20 cycles
 SCF Done:  E(UB3LYP) =  -1234.58367371     A.U. after   24 cycles
 SCF Done:  E(UB3LYP) =  -1234.62560977     A.U. after   23 cycles
 SCF Done:  E(UB3LYP) =  -1234.65597876     A.U. after   23 cycles
 SCF Done:  E(UB3LYP) =  -1234.67772699     A.U. after   23 cycles
 SCF Done:  E(UB3LYP) =  -1234.69004379     A.U. after   21 cycles
 SCF Done:  E(UB3LYP) =  -1234.69821005     A.U. after   21 cycles
 SCF Done:  E(UB3LYP) =  -1234.70490380     A.U. after   20 cycles
 SCF Done:  E(UB3LYP) =  -1234.70890382     A.U. after   20 cycles
 SCF Done:  E(UB3LYP) =  -1234.71250516     A.U. after   18 cycles
 SCF Done:  E(UB3LYP) =  -1234.71282049     A.U. after   18 cycles
 SCF Done:  E(UB3LYP) =  -1234.71302143     A.U. after   17 cycles
 SCF Done:  E(UB3LYP) =  -1234.71310457     A.U. after   15 cycles
 SCF Done:  E(UB3LYP) =  -1234.71315194     A.U. after   14 cycles
 SCF Done:  E(UB3LYP) =  -1234.71315925     A.U. after   12 cycles
 SCF Done:  E(UB3LYP) =  -1234.71316166     A.U. after   12 cycles
 SCF Done:  E(UB3LYP) =  -1234.71316243     A.U. after   12 cycles
 SCF Done:  E(UB3LYP) =  -1234.71316249     A.U. after    9 cycles
 Optimization completed.
    -- Stationary point found.
 Normal termination of Gaussian 16 at Tue May 16 10:20:56 2023.

 ----------------------------------------------------------------------
 #N Geom=AllCheck Guess=TCheck SCRF=Check GenChk UB3LYP/6-31G(2df,p) Fr
 eq
 ----------------------------------------------------------------------

 Structure from the checkpoint file:  "OdC[C]1CdCCqdSrSCdCNdC1.chk"
 -------------------
 Title Card Required
 -------------------
 Charge =  0 Multiplicity = 2

                         Standard orientation:
 ---------------------------------------------------------------------
 Center     Atomic      Atomic             Coordinates (Angstroms)
 Number     Number       Type             X           Y           Z
 ---------------------------------------------------------------------
      1          8           0        4.276550   -0.832237   -0.269962
      2          6           0        3.150839   -1.264097   -0.422137
      3          6           0        1.946004   -0.587191    0.056433
      4          6           0        0.681643   -1.149238   -0.107278
      5          6           0       -0.392595   -0.593176    0.562552
      6          6           0       -1.774117   -0.576065    0.167677
      7         16           0       -2.765526   -1.865833   -0.025187
      8         16           0       -2.308654    1.103225   -0.013987
      9          6           0       -0.893013    2.015407   -0.600734
     10          6           0        0.434104    2.145487   -0.362277
     11          7           0        1.377830    1.765368    0.567745
     12          6           0        2.088936    0.713826    0.727985
     13          1           0        2.965961   -2.232620   -0.935057
     14          1           0        0.534648   -1.982176   -0.791571
     15          1           0       -0.165081    0.107466    1.358253
     16          1           0       -1.261166    2.680577   -1.375595
     17          1           0        0.887422    2.899268   -1.011117
     18          1           0        2.917075    0.799806    1.434042
 ---------------------------------------------------------------------

 SCF Done:  E(UB3LYP) =  -1234.71316249     A.U. after    1 cycles

 The electronic state is 2-A.
 Alpha  occ. eigenvalues --  -88.92250 -88.87833 -19.15370 -14.37421 -10.29239
 Alpha  occ. eigenvalues --  -10.28448 -10.27027 -10.25516 -10.24488 -10.24339
 Alpha  occ. eigenvalues --  -10.23906 -10.23345  -7.98366  -7.94312  -5.94823
 Alpha  occ. eigenvalues --   -5.94444  -5.94021  -5.90709  -5.90570  -5.89862
 Alpha  occ. eigenvalues --   -1.05938  -0.96709  -0.88524  -0.85006  -0.79653
 Alpha  occ. eigenvalues --   -0.76465  -0.73681  -0.67363  -0.65248  -0.61021
 Alpha  occ. eigenvalues --   -0.56416  -0.53731  -0.52365  -0.49726  -0.49307
 Alpha  occ. eigenvalues --   -0.47701  -0.45322  -0.44062  -0.42743  -0.41929
 Alpha  occ. eigenvalues --   -0.41367  -0.38749  -0.36116  -0.34466  -0.34333
 Alpha  occ. eigenvalues --   -0.31666  -0.28755  -0.27153  -0.25056  -0.23947
 Alpha  occ. eigenvalues --   -0.22734
 Alpha virt. eigenvalues --   -0.09669  -0.06151  -0.04034  -0.01812   0.03295
 Alpha virt. eigenvalues --    0.05237   0.05950   0.08751   0.09546   0.10514
 Alpha virt. eigenvalues --    0.12241   0.13205   0.14449   0.17600   0.20014

  Beta  occ. eigenvalues --  -88.92250 -88.87691 -19.14986 -14.37174 -10.29352
  Beta  occ. eigenvalues --  -10.28537 -10.27143 -10.25547 -10.24590 -10.23793
  Beta  occ. eigenvalues --  -10.23371 -10.23295  -7.98367  -7.94173  -5.94822
  Beta  occ. eigenvalues --   -5.94408  -5.94056  -5.90513  -5.90277  -5.89728
  Beta  occ. eigenvalues --   -1.05236  -0.96287  -0.87927  -0.84599  -0.79427
  Beta  occ. eigenvalues --   -0.75857  -0.72936  -0.67171  -0.64875  -0.60772
  Beta  occ. eigenvalues --   -0.56110  -0.53404  -0.52118  -0.49505  -0.48989
  Beta  occ. eigenvalues --   -0.47509  -0.44857  -0.43711  -0.42399  -0.40944
  Beta  occ. eigenvalues --   -0.40225  -0.38333  -0.35665  -0.34223  -0.32943
  Beta  occ. eigenvalues --   -0.30930  -0.28083  -0.26695  -0.24753  -0.22731
  Beta virt. eigenvalues --   -0.15435  -0.09079  -0.05581  -0.02551  -0.01512
  Beta virt. eigenvalues --    0.03358   0.05828   0.06942   0.08885   0.09709
  Beta virt. eigenvalues --    0.10798   0.12349   0.13471   0.14500   0.17711

 Mulliken charges and spin densities:
               1          2
     1  O   -0.266423   0.151747
     2  C    0.088370  -0.048259
     3  C    0.150650   0.369233
     4  C   -0.141810  -0.164165
     5  C   -0.127640   0.457003
     6  C    0.190204  -0.065088
     7  S   -0.259017   0.237086
     8  S   -0.038754   0.000545
     9  C   -0.181019   0.026657
    10  C    0.025508  -0.019889
    11  N   -0.176967   0.117292
    12  C   -0.073274  -0.073387
    13  H    0.082047  -0.000866
    14  H    0.141856   0.013614
    15  H    0.159198  -0.014119
    16  H    0.137417  -0.001498
    17  H    0.141891   0.005216
    18  H    0.147762   0.008877
 Sum of Mulliken charges =  -0.00000   1.00000

 Dipole moment (field-independent basis, Debye):
    X=              0.1397    Y=              0.6763    Z=             -0.5596  Tot=              0.8889
 Quadrupole moment (field-independent basis, Debye-Ang):
   XX=           -103.4786   YY=            -80.7226   ZZ=            -79.7896
   XY=             -3.4049   XZ=              0.6246   YZ=             -2.1640

  Exact polarizability: 239.477  15.670 151.929   4.917   0.655  76.207
 Approx polarizability: 437.328  52.590 288.544  14.872   4.819 135.310

                      1                      2                      3
                      A                      A                      A
 Frequencies --     54.4213                71.8998                81.7538
 Red. masses --      7.9205                 6.9422                 6.1500
 Frc consts  --      0.0138                 0.0211                 0.0242
 IR Inten    --      0.9113                 6.4282                 6.4417

                      4                      5                      6
                      A                      A                      A
 Frequencies --    138.8938               176.5627               204.5413
 Red. masses --      4.4792                 9.4432                 6.7575
 Frc consts  --      0.0509                 0.1734                 0.1666
 IR Inten    --      3.2380                 0.4318                 2.2733

                      7                      8                      9
                      A                      A                      A
 Frequencies --    242.6869               262.1156               282.1011
 Red. masses --      5.0739                 6.0233                 3.4556
 Frc consts  --      0.1761                 0.2438                 0.1620
 IR Inten    --      3.0450                 0.4608                 0.7000

                     10                     11                     12
                      A                      A                      A
 Frequencies --    313.8030               381.3875               432.6365
 Red. masses --      3.3760                 9.5045                 4.3091
 Frc consts  --      0.1959                 0.8145                 0.4752
 IR Inten    --     19.0792                 6.6754                33.3524

                     13                     14                     15
                      A                      A                      A
 Frequencies --    437.9793               456.9753               540.5347
 Red. masses --      3.6499                 4.1117                 5.2942
 Frc consts  --      0.4125                 0.5059                 0.9114
 IR Inten    --      3.8442                 4.8857                16.0811

                     16                     17                     18
                      A                      A                      A
 Frequencies --    581.8407               604.6979               671.9092
 Red. masses --      3.6546                 6.3986                 5.2711
 Frc consts  --      0.7290                 1.3785                 1.4021
 IR Inten    --     11.9305                24.4289                34.4057

                     19                     20                     21
                      A                      A                      A
 Frequencies --    708.8598               742.0609               758.0311
 Red. masses --      4.9516                 2.4135                 3.8085
 Frc consts  --      1.4660                 0.7830                 1.2894
 IR Inten    --     13.4298                 2.4555                15.2263

                     22                     23                     24
                      A                      A                      A
 Frequencies --    861.4250               876.5323               921.9124
 Red. masses --      2.2766                 2.3918                 2.6247
 Frc consts  --      0.9953                 1.0827                 1.3143
 IR Inten    --     32.5449                40.5960                66.7898

                     25                     26                     27
                      A                      A                      A
 Frequencies --    937.8875               956.1774               977.7712
 Red. masses --      1.4875                 1.6523                 2.0935
 Frc consts  --      0.7709                 0.8900                 1.1792
 IR Inten    --     25.1283                25.2493                47.0260

                     28                     29                     30
                      A                      A                      A
 Frequencies --    981.0936              1019.9702              1169.6803
 Red. masses --      2.1780                 1.8275                 2.5756
 Frc consts  --      1.2352                 1.1202                 2.0762
 IR Inten    --     26.0583                 4.1503               112.7871

                     31                     32                     33
                      A                      A                      A
 Frequencies --   1223.6920              1299.1553              1338.2199
 Red. masses --      2.7086                 2.5683                 1.6396
 Frc consts  --      2.3897                 2.5539                 1.7300
 IR Inten    --     18.2287                22.8056                23.3916

                     34                     35                     36
                      A                      A                      A
 Frequencies --   1343.4381              1384.2687              1385.8182
 Red. masses --      1.1004                 1.5819                 1.4978
 Frc consts  --      1.1702                 1.7859                 1.6948
 IR Inten    --      7.9230                 6.2504                 8.2466

                     37                     38                     39
                      A                      A                      A
 Frequencies --   1425.7891              1461.0453              1497.5125
 Red. masses --      1.3168                 2.2159                 2.4468
 Frc consts  --      1.5771                 2.7870                 3.2328
 IR Inten    --      5.9451                 0.4269                13.0863

                     40                     41                     42
                      A                      A                      A
 Frequencies --   1583.4054              1672.0326              1733.1124
 Red. masses --      6.2269                10.8461                 9.6743
 Frc consts  --      9.1983                17.8654                17.1208
 IR Inten    --     11.4907                44.6132               261.7255

                     43                     44                     45
                      A                      A                      A
 Frequencies --   2898.3529              3092.1708              3111.3222
 Red. masses --      1.0832                 1.0819                 1.0868
 Frc consts  --      5.3613                 6.0946                 6.1983
 IR Inten    --    102.3769                 1.9937                10.2013

                     46                     47                     48
                      A                      A                      A
 Frequencies --   3159.5398              3170.4517              3182.0283
 Red. masses --      1.0893                 1.0879                 1.0839
 Frc consts  --      6.4071                 6.4430                 6.4659
 IR Inten    --      0.6372                 2.6046                 0.1487

 - Thermochemistry -
 -------------------
 Temperature   298.150 Kelvin.  Pressure   1.00000 Atm.
 Atom     1 has atomic number  8 and mass  15.99491

 Molecular mass:   195.98908 amu.
 Principal axes and moments of inertia in atomic units:
                           1         2         3
     Eigenvalues --  1501.495003788.340355055.69203
           X            0.99995  -0.00938   0.00158
           Y            0.00939   0.99994  -0.00474
           Z           -0.00154   0.00475   0.99999
 This molecule is an asymmetric top.
 Rotational symmetry number  1.
 Warning -- assumption of classical behavior for rotation
           may cause significant error
 Rotational temperatures (Kelvin)      0.05769     0.02286     0.01713
 Rotational constants (GHZ):           1.20196     0.47639     0.35697
 Zero-point vibrational energy     315870.9 (Joules/Mol)
                                   75.49497 (Kcal/Mol)
 Warning -- explicit consideration of  17 degrees of freedom as
           vibrations may cause significant error
 Vibrational temperatures:     78.30   103.45   117.63   199.84   254.03
          (Kelvin)            294.29   349.17   377.13   405.88   451.49
                              548.73   622.47   630.15   657.49   777.71
                              837.14   870.03   966.73  1019.89  1067.66
                             1090.64  1239.40  1261.13  1326.43  1349.41
                             1375.73  1406.79  1411.57  1467.51  1682.91
                             1760.62  1869.19  1925.40  1932.91  1991.65
                             1993.88  2051.39  2102.12  2154.59  2278.17
                             2405.68  2493.56  4170.08  4448.94  4476.50
                             4545.87  4561.57  4578.23

 Zero-point correction=                           0.120309 (Hartree/Particle)
 Thermal correction to Energy=                    0.131720
 Thermal correction to Enthalpy=                  0.132664
 Thermal correction to Gibbs Free Energy=         0.081187
 Sum of electronic and zero-point Energies=          -1234.592854
 Sum of electronic and thermal Energies=             -1234.581443
 Sum of electronic and thermal Enthalpies=           -1234.580499
 Sum of electronic and thermal Free Energies=        -1234.631976

                     E (Thermal)             CV                S
                      KCal/Mol        Cal/Mol-Kelvin    Cal/Mol-Kelvin
 Total                   82.655             41.447            108.342
 Electronic               0.000              0.000              1.377
 Translational            0.889              2.981             41.724
 Rotational               0.889              2.981             31.731
 Vibrational             80.878             35.485             33.510
 Vibration     1          0.596              1.976              4.650
 Vibration     2          0.598              1.967              4.101
 Vibration     3          0.600              1.962              3.848
 Vibration     4          0.615              1.914              2.819
 Vibration     5          0.628              1.871              2.364
 Vibration     6          0.640              1.833              2.092
 Vibration     7          0.659              1.775              1.783
 Vibration     8          0.669              1.742              1.648
 Vibration     9          0.681              1.707              1.521
 Vibration    10          0.702              1.647              1.342
 Vibration    11          0.751              1.510              1.034
 Vibration    12          0.794              1.399              0.850
 Vibration    13          0.798              1.387              0.833
 Vibration    14          0.815              1.345              0.775
 Vibration    15          0.896              1.160              0.564
 Vibration    16          0.939              1.071              0.482
 Vibration    17          0.963              1.022              0.442

 Optimization completed.
    -- Stationary point found.
 Normal termination of Gaussian 16 at Tue May 16 12:04:19 2023.
