 Gaussian 16, Revision A.03,
 Gaussian 16:  ES64L-G16RevA.03 25-Dec-2016

 -----------------------------
 # opt freq b3lyp/6-31g(2df,p)
 -----------------------------

 -------------------
 Title Card Required
 -------------------
 Symbolic Z-matrix:
 Charge =  0 Multiplicity = 1

 SCF Done:  E(RB3LYP) =  -611.566714392     A.U. after   31 cycles
 SCF Done:  E(RB3LYP) =  -611.671860065     A.U. after   25 cycles
 SCF Done:  E(RB3LYP) =  -611.812936420     A.U. after   22 cycles
 SCF Done:  E(RB3LYP) =  -611.866707863     A.U. after   20 cycles
 SCF Done:  E(RB3LYP) =  -611.981594381     A.U. after   18 cycles
 SCF Done:  E(RB3LYP) =  -612.120756974     A.U. after   16 cycles
 SCF Done:  E(RB3LYP) =  -612.201104314     A.U. after   16 cycles
 SCF Done:  E(RB3LYP) =  -612.254347089     A.U. after   16 cycles
 SCF Done:  E(RB3LYP) =  -612.310489926     A.U. after   15 cycles
 SCF Done:  E(RB3LYP) =  -612.341582036     A.U. after   16 cycles
 SCF Done:  E(RB3LYP) =  -612.452666737     A.U. after   13 cycles
 SCF Done:  E(RB3LYP) =  -612.453310019     A.U. after   13 cycles
 SCF Done:  E(RB3LYP) =  -612.453035181     A.U. after   13 cycles
 SCF Done:  E(RB3LYP) =  -612.453611080     A.U. after   13 cycles
 SCF Done:  E(RB3LYP) =  -612.453701431     A.U. after   10 cycles
 SCF Done:  E(RB3LYP) =  -612.453714967     A.U. after   11 cycles
 SCF Done:  E(RB3LYP) =  -612.453719580     A.U. after    8 cycles
 SCF Done:  E(RB3LYP) =  -612.453721145     A.U. after    8 cycles
 SCF Done:  E(RB3LYP) =  -612.453721445     A.U. after    8 cycles
 Optimization completed.
    -- Stationary point found.
 Normal termination of Gaussian 16 at Fri May 19 00:24:51 2023.

 ----------------------------------------------------------------------
 #N Geom=AllCheck Guess=TCheck SCRF=Check GenChk RB3LYP/6-31G(2df,p) Fr
 eq
 ----------------------------------------------------------------------

 Structure from the checkpoint file:  "OdCc1cc2ccccqdOrccc-2c1.chk"
 -------------------
 Title Card Required
 -------------------
 Charge =  0 Multiplicity = 1

                         Standard orientation:
 ---------------------------------------------------------------------
 Center     Atomic      Atomic             Coordinates (Angstroms)
 Number     Number       Type             X           Y           Z
 ---------------------------------------------------------------------
      1          8           0       -4.777960   -0.247524    0.154786
      2          6           0       -3.905462    0.590794    0.110774
      3          6           0       -2.470349    0.288646    0.022892
      4          6           0       -1.913149   -0.957945   -0.042457
      5          6           0       -0.471758   -0.831015   -0.102309
      6          6           0        0.347280   -1.915676   -0.243490
      7          6           0        1.773790   -1.719179   -0.227949
      8          6           0        2.240346   -0.793038    0.626360
      9          6           0        3.202774    0.260002    0.210443
     10          8           0        4.408240    0.229659    0.110097
     11          6           0        2.362697    1.429134   -0.159371
     12          6           0        1.008055    1.515335   -0.251809
     13          6           0       -0.167828    0.653389   -0.103685
     14          6           0       -1.399806    1.261651   -0.041654
     15          1           0       -4.152495    1.675518    0.135115
     16          1           0       -2.451638   -1.895252   -0.044521
     17          1           0       -0.100564   -2.885373   -0.451457
     18          1           0        2.390783   -2.139743   -1.019435
     19          1           0        1.573624   -0.481468    1.426585
     20          1           0        2.940321    2.319339   -0.395958
     21          1           0        0.673959    2.523429   -0.498690
     22          1           0       -1.555762    2.333885   -0.057170
 ---------------------------------------------------------------------

 SCF Done:  E(RB3LYP) =  -612.453721445     A.U. after    1 cycles

 The electronic state is 1-A.
 Alpha  occ. eigenvalues --  -19.14100 -19.13285 -10.27835 -10.27581 -10.24324
 Alpha  occ. eigenvalues --  -10.23259 -10.22754 -10.22325 -10.22165 -10.21691
 Alpha  occ. eigenvalues --  -10.21382 -10.21345 -10.20911 -10.20212  -1.04637
 Alpha  occ. eigenvalues --   -1.04228  -0.90195  -0.85020  -0.81540  -0.76834
 Alpha  occ. eigenvalues --   -0.74195  -0.70100  -0.65305  -0.63103  -0.59078
 Alpha  occ. eigenvalues --   -0.56496  -0.55197  -0.52642  -0.51204  -0.48174
 Alpha  occ. eigenvalues --   -0.46707  -0.45650  -0.44640  -0.43946  -0.43036
 Alpha  occ. eigenvalues --   -0.41842  -0.40852  -0.40121  -0.38998  -0.37984
 Alpha  occ. eigenvalues --   -0.37870  -0.36518  -0.31954  -0.30314  -0.26216
 Alpha  occ. eigenvalues --   -0.26034  -0.25293  -0.23029
 Alpha virt. eigenvalues --   -0.11892  -0.07102  -0.03471  -0.00565   0.04625
 Alpha virt. eigenvalues --    0.08464   0.09198   0.09910   0.11243   0.12111
 Alpha virt. eigenvalues --    0.12445   0.14105   0.14995   0.15178   0.18315

 Mulliken charges:
               1
     1  O   -0.270733
     2  C    0.090386
     3  C    0.169755
     4  C   -0.261008
     5  C    0.191058
     6  C   -0.168555
     7  C   -0.100467
     8  C   -0.193457
     9  C    0.343456
    10  O   -0.331363
    11  C   -0.236170
    12  C   -0.072030
    13  C    0.149881
    14  C   -0.262160
    15  H    0.071135
    16  H    0.141140
    17  H    0.126106
    18  H    0.134665
    19  H    0.137621
    20  H    0.113362
    21  H    0.107976
    22  H    0.119403
 Sum of Mulliken charges =  -0.00000

 Dipole moment (field-independent basis, Debye):
    X=             -0.5782    Y=              0.2208    Z=             -0.5147  Tot=              0.8049
 Quadrupole moment (field-independent basis, Debye-Ang):
   XX=           -114.7530   YY=            -67.5674   ZZ=            -78.3463
   XY=             -5.7157   XZ=             -0.3171   YZ=              1.4405

  Exact polarizability: 248.899  -7.920 135.267  -0.349   2.996  61.723
 Approx polarizability: 478.166 -31.412 246.014   5.888  10.017 109.588

                      1                      2                      3
                      A                      A                      A
 Frequencies --     56.0980               109.0499               122.8087
 Red. masses --     10.2990                 6.5736                 4.0684
 Frc consts  --      0.0191                 0.0461                 0.0362
 IR Inten    --      5.3021                 1.1878                 4.3007

                      4                      5                      6
                      A                      A                      A
 Frequencies --    143.4738               204.4495               228.4614
 Red. masses --      6.3458                 3.2625                 4.4122
 Frc consts  --      0.0770                 0.0803                 0.1357
 IR Inten    --      5.6752                 7.1085                 2.8018

                      7                      8                      9
                      A                      A                      A
 Frequencies --    237.9852               305.9821               324.8308
 Red. masses --      3.8047                 4.6057                 5.5099
 Frc consts  --      0.1270                 0.2541                 0.3425
 IR Inten    --      1.3651                 7.5071                 5.3262

                     10                     11                     12
                      A                      A                      A
 Frequencies --    340.7649               383.9364               426.7030
 Red. masses --      4.3129                 2.8921                 3.4262
 Frc consts  --      0.2951                 0.2512                 0.3675
 IR Inten    --      0.7534                 0.1721                 8.9726

                     13                     14                     15
                      A                      A                      A
 Frequencies --    487.2039               513.9525               575.7339
 Red. masses --      5.4606                 5.7109                 3.0890
 Frc consts  --      0.7637                 0.8888                 0.6033
 IR Inten    --      4.3673                 6.1232                11.3459

                     16                     17                     18
                      A                      A                      A
 Frequencies --    600.6579               635.6855               688.1156
 Red. masses --      3.2609                 3.0032                 3.1349
 Frc consts  --      0.6932                 0.7150                 0.8746
 IR Inten    --      6.6047                 2.0021                 1.1937

                     19                     20                     21
                      A                      A                      A
 Frequencies --    711.1353               736.4227               749.9028
 Red. masses --      5.9579                 3.3310                 4.1065
 Frc consts  --      1.7752                 1.0643                 1.3606
 IR Inten    --     15.6209                 0.3900                 0.9197

                     22                     23                     24
                      A                      A                      A
 Frequencies --    761.8050               817.2554               853.0944
 Red. masses --      4.3020                 1.7933                 1.5450
 Frc consts  --      1.4710                 0.7057                 0.6625
 IR Inten    --     57.5156                 6.4782                 6.6250

                     25                     26                     27
                      A                      A                      A
 Frequencies --    877.0984               888.7563               905.7138
 Red. masses --      2.1639                 1.6159                 1.9832
 Frc consts  --      0.9808                 0.7520                 0.9585
 IR Inten    --     10.9197                19.2145                 5.2699

                     28                     29                     30
                      A                      A                      A
 Frequencies --    956.4200               988.3824              1005.4450
 Red. masses --      2.5415                 3.6652                 1.2464
 Frc consts  --      1.3697                 2.1096                 0.7424
 IR Inten    --     25.1045                26.8306                74.4113

                     31                     32                     33
                      A                      A                      A
 Frequencies --   1010.5787              1042.5078              1065.6293
 Red. masses --      1.3122                 1.8542                 2.5949
 Frc consts  --      0.7896                 1.1873                 1.7361
 IR Inten    --     11.9007                 0.1993                50.5791

                     34                     35                     36
                      A                      A                      A
 Frequencies --   1102.9879              1138.8475              1172.3594
 Red. masses --      1.7068                 2.1545                 1.6744
 Frc consts  --      1.2234                 1.6464                 1.3559
 IR Inten    --     73.1540                 7.1820                 5.6134

                     37                     38                     39
                      A                      A                      A
 Frequencies --   1191.2296              1263.5751              1285.7795
 Red. masses --      2.0710                 2.1310                 1.5316
 Frc consts  --      1.7315                 2.0047                 1.4919
 IR Inten    --     56.0789                 3.2789                 8.0249

                     40                     41                     42
                      A                      A                      A
 Frequencies --   1316.9866              1339.2438              1348.6306
 Red. masses --      1.6866                 2.6766                 1.4406
 Frc consts  --      1.7235                 2.8285                 1.5438
 IR Inten    --     20.4823                37.2114                 2.5506

                     43                     44                     45
                      A                      A                      A
 Frequencies --   1376.4243              1424.7039              1446.6600
 Red. masses --      2.1563                 1.4577                 1.4396
 Frc consts  --      2.4069                 1.7433                 1.7751
 IR Inten    --      1.6667                11.5159                 1.4261

                     46                     47                     48
                      A                      A                      A
 Frequencies --   1490.1474              1591.4156              1604.6155
 Red. masses --      4.8589                 5.9488                 7.0002
 Frc consts  --      6.3569                 8.8766                10.6195
 IR Inten    --     73.2290               167.9439               166.4925

                     49                     50                     51
                      A                      A                      A
 Frequencies --   1618.3070              1647.5272              1784.8109
 Red. masses --      6.6937                 6.1031                10.6438
 Frc consts  --     10.3285                 9.7603                19.9771
 IR Inten    --     57.1601                 8.7420               683.0767

                     52                     53                     54
                      A                      A                      A
 Frequencies --   1789.5530              2883.7974              3116.3252
 Red. masses --     11.1014                 1.0822                 1.0842
 Frc consts  --     20.9468                 5.3024                 6.2036
 IR Inten    --     59.5208               152.8316                 9.2741

                     55                     56                     57
                      A                      A                      A
 Frequencies --   3146.4958              3154.5551              3157.5882
 Red. masses --      1.0872                 1.0866                 1.0903
 Frc consts  --      6.3418                 6.3711                 6.4046
 IR Inten    --      4.1192                 2.5046                 8.9363

                     58                     59                     60
                      A                      A                      A
 Frequencies --   3164.0981              3204.4584              3239.9482
 Red. masses --      1.0900                 1.0933                 1.0950
 Frc consts  --      6.4295                 6.6146                 6.7722
 IR Inten    --      6.3586                 4.9082                 0.6926

 - Thermochemistry -
 -------------------
 Temperature   298.150 Kelvin.  Pressure   1.00000 Atm.
 Atom     1 has atomic number  8 and mass  15.99491

 Molecular mass:   184.05243 amu.
 Principal axes and moments of inertia in atomic units:
                           1         2         3
     Eigenvalues --   856.540094856.999795625.02266
           X            1.00000  -0.00265  -0.00150
           Y            0.00266   0.99999   0.00367
           Z            0.00149  -0.00367   0.99999
 This molecule is an asymmetric top.
 Rotational symmetry number  1.
 Warning -- assumption of classical behavior for rotation
           may cause significant error
 Rotational temperatures (Kelvin)      0.10112     0.01783     0.01540
 Rotational constants (GHZ):           2.10701     0.37158     0.32084
 Zero-point vibrational energy     429202.8 (Joules/Mol)
                                  102.58194 (Kcal/Mol)
 Warning -- explicit consideration of  16 degrees of freedom as
           vibrations may cause significant error
 Vibrational temperatures:     80.71   156.90   176.69   206.43   294.16
          (Kelvin)            328.70   342.41   440.24   467.36   490.28
                              552.40   613.93   700.98   739.46   828.35
                              864.21   914.61   990.04  1023.17  1059.55
                             1078.94  1096.07  1175.85  1227.41  1261.95
                             1278.72  1303.12  1376.07  1422.06  1446.61
                             1454.00  1499.94  1533.20  1586.95  1638.55
                             1686.76  1713.91  1818.00  1849.95  1894.85
                             1926.87  1940.38  1980.37  2049.83  2081.42
                             2143.99  2289.69  2308.68  2328.38  2370.42
                             2567.94  2574.77  4149.14  4483.70  4527.11
                             4538.70  4543.07  4552.43  4610.50  4661.56

 Zero-point correction=                           0.163475 (Hartree/Particle)
 Thermal correction to Energy=                    0.174680
 Thermal correction to Enthalpy=                  0.175625
 Thermal correction to Gibbs Free Energy=         0.126155
 Sum of electronic and zero-point Energies=           -612.290247
 Sum of electronic and thermal Energies=              -612.279041
 Sum of electronic and thermal Enthalpies=            -612.278097
 Sum of electronic and thermal Free Energies=         -612.327567

                     E (Thermal)             CV                S
                      KCal/Mol        Cal/Mol-Kelvin    Cal/Mol-Kelvin
 Total                  109.614             43.613            104.118
 Electronic               0.000              0.000              0.000
 Translational            0.889              2.981             41.536
 Rotational               0.889              2.981             31.526
 Vibrational            107.836             37.651             31.056
 Vibration     1          0.596              1.975              4.590
 Vibration     2          0.606              1.942              3.286
 Vibration     3          0.610              1.930              3.056
 Vibration     4          0.616              1.910              2.757
 Vibration     5          0.640              1.834              2.093
 Vibration     6          0.651              1.798              1.891
 Vibration     7          0.656              1.782              1.818
 Vibration     8          0.696              1.662              1.384
 Vibration     9          0.709              1.626              1.286
 Vibration    10          0.720              1.594              1.209
 Vibration    11          0.753              1.504              1.024
 Vibration    12          0.788              1.412              0.869
 Vibration    13          0.843              1.278              0.691
 Vibration    14          0.869              1.219              0.624
 Vibration    15          0.932              1.084              0.493
 Vibration    16          0.959              1.030              0.449

 Optimization completed.
    -- Stationary point found.
 Normal termination of Gaussian 16 at Fri May 19 01:34:01 2023.
