 Gaussian 16, Revision A.03,
 Gaussian 16:  ES64L-G16RevA.03 25-Dec-2016

 -----------------------------
 # opt freq b3lyp/6-31g(2df,p)
 -----------------------------

 -------------------
 Title Card Required
 -------------------
 Symbolic Z-matrix:
 Charge =  0 Multiplicity = 2

 SCF Done:  E(UB3LYP) =  -837.556518449     A.U. after   25 cycles
 SCF Done:  E(UB3LYP) =  -837.592188324     A.U. after   19 cycles
 SCF Done:  E(UB3LYP) =  -837.620915247     A.U. after   22 cycles
 SCF Done:  E(UB3LYP) =  -837.626609966     A.U. after   19 cycles
 SCF Done:  E(UB3LYP) =  -837.630960399     A.U. after   20 cycles
 SCF Done:  E(UB3LYP) =  -837.638887657     A.U. after   20 cycles
 SCF Done:  E(UB3LYP) =  -837.652109703     A.U. after   20 cycles
 SCF Done:  E(UB3LYP) =  -837.669759747     A.U. after   19 cycles
 SCF Done:  E(UB3LYP) =  -837.685752344     A.U. after   19 cycles
 SCF Done:  E(UB3LYP) =  -837.699484994     A.U. after   19 cycles
 SCF Done:  E(UB3LYP) =  -837.730659208     A.U. after   11 cycles
 SCF Done:  E(UB3LYP) =  -837.730662586     A.U. after   11 cycles
 SCF Done:  E(UB3LYP) =  -837.730661869     A.U. after   10 cycles
 SCF Done:  E(UB3LYP) =  -837.730663478     A.U. after   11 cycles
 SCF Done:  E(UB3LYP) =  -837.730664090     A.U. after   11 cycles
 SCF Done:  E(UB3LYP) =  -837.730664277     A.U. after    9 cycles
 SCF Done:  E(UB3LYP) =  -837.730664332     A.U. after    7 cycles
 SCF Done:  E(UB3LYP) =  -837.730664372     A.U. after    7 cycles
 SCF Done:  E(UB3LYP) =  -837.730664414     A.U. after    9 cycles
 Optimization completed.
    -- Stationary point found.
 Normal termination of Gaussian 16 at Sat May 20 19:08:19 2023.

 ----------------------------------------------------------------------
 #N Geom=AllCheck Guess=TCheck SCRF=Check GenChk UB3LYP/6-31G(2df,p) Fr
 eq
 ----------------------------------------------------------------------

 Structure from the checkpoint file:  "OdCCC1dN[C]d[SH]CdCCdC1.chk"
 -------------------
 Title Card Required
 -------------------
 Charge =  0 Multiplicity = 2

                         Standard orientation:
 ---------------------------------------------------------------------
 Center     Atomic      Atomic             Coordinates (Angstroms)
 Number     Number       Type             X           Y           Z
 ---------------------------------------------------------------------
      1          8           0       -4.262125   -0.550686    0.125564
      2          6           0       -3.322052    0.192550    0.065298
      3          6           0       -2.127712   -0.011113   -0.870648
      4          6           0       -0.807177    0.287509   -0.209767
      5          7           0       -0.459793   -0.579477    0.789687
      6          6           0       -0.235642   -1.330724    1.671869
      7         16           0        2.426296   -1.243971   -0.749815
      8          6           0        2.775412   -0.030772    0.447678
      9          6           0        2.235062    1.206208    0.662257
     10          6           0        1.150710    1.880145    0.044869
     11          6           0       -0.066396    1.416813   -0.491628
     12          1           0       -3.261384    1.114080    0.686926
     13          1           0       -2.265241    0.669112   -1.720001
     14          1           0       -2.171767   -1.037853   -1.246947
     15          1           0        1.415884   -0.612240   -1.376185
     16          1           0        3.637757   -0.324148    1.037561
     17          1           0        2.819241    1.824459    1.342956
     18          1           0        1.270801    2.960966   -0.009008
     19          1           0       -0.563708    2.107303   -1.170155
 ---------------------------------------------------------------------

 SCF Done:  E(UB3LYP) =  -837.730664414     A.U. after    1 cycles

 The electronic state is 2-A.
 Alpha  occ. eigenvalues --  -88.90266 -19.15444 -14.37442 -10.28731 -10.26980
 Alpha  occ. eigenvalues --  -10.23951 -10.22177 -10.22122 -10.22035 -10.21838
 Alpha  occ. eigenvalues --  -10.20873  -7.96793  -5.93202  -5.92825  -5.92489
 Alpha  occ. eigenvalues --   -1.06219  -0.97285  -0.85079  -0.83046  -0.78563
 Alpha  occ. eigenvalues --   -0.73940  -0.70567  -0.65170  -0.60043  -0.57426
 Alpha  occ. eigenvalues --   -0.52324  -0.49947  -0.48903  -0.47071  -0.46142
 Alpha  occ. eigenvalues --   -0.44533  -0.42458  -0.41507  -0.40659  -0.38479
 Alpha  occ. eigenvalues --   -0.38329  -0.36426  -0.35840  -0.34139  -0.31338
 Alpha  occ. eigenvalues --   -0.30549  -0.27200  -0.25093  -0.19048
 Alpha virt. eigenvalues --   -0.04710  -0.02755   0.01622   0.02033   0.03258
 Alpha virt. eigenvalues --    0.06331   0.07265   0.08265   0.09534   0.11821
 Alpha virt. eigenvalues --    0.13102   0.14859   0.17281   0.18270   0.19814

  Beta  occ. eigenvalues --  -88.90213 -19.15435 -14.37547 -10.28684 -10.26415
  Beta  occ. eigenvalues --  -10.23476 -10.22275 -10.22157 -10.21979 -10.21191
  Beta  occ. eigenvalues --  -10.21079  -7.96741  -5.93178  -5.92803  -5.92303
  Beta  occ. eigenvalues --   -1.06189  -0.96995  -0.84456  -0.82427  -0.77936
  Beta  occ. eigenvalues --   -0.73797  -0.70038  -0.64499  -0.59871  -0.56978
  Beta  occ. eigenvalues --   -0.52044  -0.49704  -0.48626  -0.46951  -0.45697
  Beta  occ. eigenvalues --   -0.44353  -0.42215  -0.40966  -0.40270  -0.38370
  Beta  occ. eigenvalues --   -0.38044  -0.35747  -0.35320  -0.33392  -0.30580
  Beta  occ. eigenvalues --   -0.29428  -0.26778  -0.24173
  Beta virt. eigenvalues --   -0.11163  -0.03984  -0.01919   0.01912   0.02243
  Beta virt. eigenvalues --    0.04562   0.06723   0.07462   0.09173   0.10051
  Beta virt. eigenvalues --    0.11916   0.13375   0.15175   0.17365   0.18578

 Mulliken charges and spin densities:
               1          2
     1  O   -0.221152   0.003131
     2  C    0.167735   0.014833
     3  C   -0.347037  -0.019260
     4  C    0.240506   0.355423
     5  N   -0.028715  -0.051770
     6  C   -0.232933   0.134848
     7  S   -0.171055   0.089694
     8  C   -0.092663   0.311587
     9  C   -0.085929  -0.145920
    10  C   -0.116758   0.464965
    11  C   -0.117800  -0.163594
    12  H    0.088573   0.003501
    13  H    0.138544   0.001289
    14  H    0.146677   0.012848
    15  H    0.166361  -0.002646
    16  H    0.138726  -0.012509
    17  H    0.110725   0.013515
    18  H    0.110979  -0.021576
    19  H    0.105215   0.011643
 Sum of Mulliken charges =  -0.00000   1.00000

 Dipole moment (field-independent basis, Debye):
    X=              1.9124    Y=              3.8045    Z=             -2.4426  Tot=              4.9090
 Quadrupole moment (field-independent basis, Debye-Ang):
   XX=            -79.1280   YY=            -70.8877   ZZ=            -72.8865
   XY=             -3.7058   XZ=              6.5531   YZ=              3.6676

  Exact polarizability: 155.555   0.003 119.243   3.989  -0.605  88.370
 Approx polarizability: 222.056   2.515 217.925  14.258  -7.826 150.487
