 Gaussian 16, Revision A.03,
 Gaussian 16:  ES64L-G16RevA.03 25-Dec-2016

 -----------------------------
 # opt freq b3lyp/6-31g(2df,p)
 -----------------------------

 -------------------
 Title Card Required
 -------------------
 Symbolic Z-matrix:
 Charge =  0 Multiplicity = 1

 SCF Done:  E(RB3LYP) =  -663.842141141     A.U. after   18 cycles
 SCF Done:  E(RB3LYP) =  -663.883850385     A.U. after   15 cycles
 SCF Done:  E(RB3LYP) =  -663.914279366     A.U. after   15 cycles
 SCF Done:  E(RB3LYP) =  -663.924105556     A.U. after   15 cycles
 SCF Done:  E(RB3LYP) =  -663.929040442     A.U. after   15 cycles
 SCF Done:  E(RB3LYP) =  -663.928858506     A.U. after   15 cycles
 SCF Done:  E(RB3LYP) =  -663.933026014     A.U. after   15 cycles
 SCF Done:  E(RB3LYP) =  -663.934789484     A.U. after   14 cycles
 SCF Done:  E(RB3LYP) =  -663.935346534     A.U. after   15 cycles
 SCF Done:  E(RB3LYP) =  -663.935457420     A.U. after   13 cycles
 SCF Done:  E(RB3LYP) =  -663.935503766     A.U. after   11 cycles
 SCF Done:  E(RB3LYP) =  -663.935510676     A.U. after   10 cycles
 SCF Done:  E(RB3LYP) =  -663.935515260     A.U. after    9 cycles
 SCF Done:  E(RB3LYP) =  -663.935515775     A.U. after    8 cycles
 Optimization completed.
    -- Stationary point found.
 Normal termination of Gaussian 16 at Thu May 18 03:33:42 2023.

 ----------------------------------------------------------------------
 #N Geom=AllCheck Guess=TCheck SCRF=Check GenChk RB3LYP/6-31G(2df,p) Fr
 eq
 ----------------------------------------------------------------------

 Structure from the checkpoint file:  "OdCC1CdCNdc2ccccc2dNNdC1.chk"
 -------------------
 Title Card Required
 -------------------
 Charge =  0 Multiplicity = 1

                         Standard orientation:
 ---------------------------------------------------------------------
 Center     Atomic      Atomic             Coordinates (Angstroms)
 Number     Number       Type             X           Y           Z
 ---------------------------------------------------------------------
      1          8           0        4.748961    0.352638   -0.413025
      2          6           0        4.025090   -0.239465    0.345628
      3          6           0        2.530140   -0.025115    0.461586
      4          6           0        1.705616   -1.268710    0.144697
      5          6           0        0.466601   -1.254317    0.650927
      6          7           0       -0.678672   -1.715610    0.038017
      7          6           0       -1.579396   -0.810779   -0.202223
      8          6           0       -2.916245   -1.207564   -0.602819
      9          6           0       -3.971813   -0.404285   -0.335340
     10          6           0       -3.799762    0.876233    0.311508
     11          6           0       -2.563326    1.367687    0.563943
     12          6           0       -1.382890    0.648680    0.128010
     13          7           0       -0.272266    1.346307    0.101696
     14          7           0        0.752107    1.292808   -0.697971
     15          6           0        1.975752    0.947290   -0.567423
     16          1           0        4.412830   -1.036346    1.018534
     17          1           0        2.314170    0.301626    1.488647
     18          1           0        1.908763   -1.765847   -0.799729
     19          1           0        0.296555   -0.668649    1.559883
     20          1           0       -3.033449   -2.201966   -1.017323
     21          1           0       -4.977672   -0.734669   -0.573780
     22          1           0       -4.678834    1.460671    0.559492
     23          1           0       -2.410195    2.358645    0.975916
     24          1           0        2.629348    1.222980   -1.390601
 ---------------------------------------------------------------------

 SCF Done:  E(RB3LYP) =  -663.935515775     A.U. after    1 cycles

 The electronic state is 1-A.
 Alpha  occ. eigenvalues --  -19.15370 -14.40188 -14.39831 -14.34144 -10.28290
 Alpha  occ. eigenvalues --  -10.25125 -10.24924 -10.24613 -10.22657 -10.22158
 Alpha  occ. eigenvalues --  -10.20723 -10.20427 -10.20195 -10.19827 -10.19314
 Alpha  occ. eigenvalues --   -1.06061  -1.03948  -0.95026  -0.88755  -0.84056
 Alpha  occ. eigenvalues --   -0.81714  -0.75554  -0.74954  -0.69808  -0.65866
 Alpha  occ. eigenvalues --   -0.61245  -0.60304  -0.58173  -0.55491  -0.54275
 Alpha  occ. eigenvalues --   -0.49911  -0.49775  -0.48421  -0.47238  -0.46539
 Alpha  occ. eigenvalues --   -0.45807  -0.44741  -0.43975  -0.42022  -0.40496
 Alpha  occ. eigenvalues --   -0.39019  -0.38458  -0.37930  -0.36919  -0.34725
 Alpha  occ. eigenvalues --   -0.33365  -0.30678  -0.28407  -0.26695  -0.25176
 Alpha  occ. eigenvalues --   -0.24148  -0.20316
 Alpha virt. eigenvalues --   -0.09909  -0.04089  -0.03202  -0.00211   0.00454
 Alpha virt. eigenvalues --    0.03554   0.09202   0.09762   0.12137   0.12583
 Alpha virt. eigenvalues --    0.13249   0.14007   0.14966   0.15681   0.17074

 Mulliken charges:
               1
     1  O   -0.240625
     2  C    0.149205
     3  C   -0.217662
     4  C   -0.164683
     5  C    0.011062
     6  N   -0.289029
     7  C    0.226023
     8  C   -0.146507
     9  C   -0.091235
    10  C   -0.113423
    11  C   -0.129876
    12  C    0.237423
    13  N   -0.234722
    14  N   -0.079956
    15  C    0.047404
    16  H    0.093814
    17  H    0.123498
    18  H    0.109239
    19  H    0.106890
    20  H    0.119392
    21  H    0.109358
    22  H    0.106788
    23  H    0.117997
    24  H    0.149625
 Sum of Mulliken charges =  -0.00000

 Dipole moment (field-independent basis, Debye):
    X=             -2.3687    Y=              0.0610    Z=              1.3618  Tot=              2.7329
 Quadrupole moment (field-independent basis, Debye-Ang):
   XX=            -83.9272   YY=            -88.7555   ZZ=            -83.4280
   XY=             -4.2157   XZ=              5.1208   YZ=              2.9322

  Exact polarizability: 252.624   0.919 122.834  -5.692   4.481  83.057
 Approx polarizability: 414.319  17.789 253.771 -26.578   2.140 149.146

                      1                      2                      3
                      A                      A                      A
 Frequencies --     56.4261                86.8639               114.4611
 Red. masses --      8.7592                 4.2816                 4.5777
 Frc consts  --      0.0164                 0.0190                 0.0353
 IR Inten    --      2.6181                 5.5400                 0.9304

                      4                      5                      6
                      A                      A                      A
 Frequencies --    146.0158               163.4889               191.8823
 Red. masses --      4.6343                 3.9920                 6.3887
 Frc consts  --      0.0582                 0.0629                 0.1386
 IR Inten    --      2.5804                 3.2044                 7.9808

                      7                      8                      9
                      A                      A                      A
 Frequencies --    251.4081               288.3652               327.9753
 Red. masses --      4.9749                 3.5676                 2.6705
 Frc consts  --      0.1853                 0.1748                 0.1692
 IR Inten    --      7.1492                 5.4449                 2.5708

                     10                     11                     12
                      A                      A                      A
 Frequencies --    329.1579               376.4410               410.6136
 Red. masses --      4.9866                 6.3095                 3.9413
 Frc consts  --      0.3183                 0.5268                 0.3915
 IR Inten    --      5.5437                 5.0310                15.0367

                     13                     14                     15
                      A                      A                      A
 Frequencies --    481.2787               487.7481               495.2881
 Red. masses --      4.3015                 3.6266                 4.4530
 Frc consts  --      0.5870                 0.5083                 0.6436
 IR Inten    --      9.5054                24.7191                29.4640

                     16                     17                     18
                      A                      A                      A
 Frequencies --    519.0907               553.5710               578.6107
 Red. masses --      5.5146                 4.5942                 4.1531
 Frc consts  --      0.8755                 0.8295                 0.8192
 IR Inten    --     24.7263                 3.5778                40.1796

                     19                     20                     21
                      A                      A                      A
 Frequencies --    612.5971               637.5870               672.2473
 Red. masses --      5.1439                 7.5421                 6.2954
 Frc consts  --      1.1374                 1.8064                 1.6762
 IR Inten    --      4.2144                18.0206                16.1139

                     22                     23                     24
                      A                      A                      A
 Frequencies --    713.6320               765.1482               774.8581
 Red. masses --      4.8442                 1.7097                 2.3643
 Frc consts  --      1.4535                 0.5897                 0.8364
 IR Inten    --     22.8250                29.0740                23.4956

                     25                     26                     27
                      A                      A                      A
 Frequencies --    835.8556               852.9332               859.1750
 Red. masses --      2.4775                 1.7898                 2.0737
 Frc consts  --      1.0198                 0.7672                 0.9019
 IR Inten    --     45.4706                11.5425                11.9315

                     28                     29                     30
                      A                      A                      A
 Frequencies --    876.8417               898.0623               971.8957
 Red. masses --      1.3303                 3.2375                 1.3199
 Frc consts  --      0.6026                 1.5384                 0.7345
 IR Inten    --     32.1456                28.1002                 4.3153

                     31                     32                     33
                      A                      A                      A
 Frequencies --    983.6751               990.9934               994.9092
 Red. masses --      1.2809                 1.8662                 1.5242
 Frc consts  --      0.7302                 1.0798                 0.8889
 IR Inten    --     12.2733                 4.8473                 0.2879

                     34                     35                     36
                      A                      A                      A
 Frequencies --   1017.1862              1051.8041              1071.0624
 Red. masses --      3.0760                 5.5885                 2.7171
 Frc consts  --      1.8751                 3.6427                 1.8365
 IR Inten    --     19.8964                13.7525                13.7556

                     37                     38                     39
                      A                      A                      A
 Frequencies --   1084.0690              1141.5857              1160.2901
 Red. masses --      2.5479                 2.5402                 1.6830
 Frc consts  --      1.7642                 1.9505                 1.3350
 IR Inten    --     24.1257                27.9378                 8.9740

                     40                     41                     42
                      A                      A                      A
 Frequencies --   1166.0073              1189.1678              1217.6839
 Red. masses --      1.2952                 1.6596                 1.6239
 Frc consts  --      1.0375                 1.3827                 1.4186
 IR Inten    --      3.0678                12.2500                 1.7048

                     43                     44                     45
                      A                      A                      A
 Frequencies --   1268.1412              1277.1789              1296.5705
 Red. masses --      1.7936                 2.2901                 1.3472
 Frc consts  --      1.6995                 2.2010                 1.3343
 IR Inten    --      1.6257                18.1626                14.3952

                     46                     47                     48
                      A                      A                      A
 Frequencies --   1374.4700              1386.3422              1402.1919
 Red. masses --      1.2080                 1.4067                 1.6387
 Frc consts  --      1.3446                 1.5929                 1.8983
 IR Inten    --      2.3827                 1.8637                 4.4061

                     49                     50                     51
                      A                      A                      A
 Frequencies --   1413.4294              1447.9886              1503.2931
 Red. masses --      1.2089                 2.1884                 6.8574
 Frc consts  --      1.4229                 2.7034                 9.1305
 IR Inten    --     16.3011                13.8529                71.9641

                     52                     53                     54
                      A                      A                      A
 Frequencies --   1572.3206              1593.0974              1657.5462
 Red. masses --      8.6247                 9.8935                 5.5894
 Frc consts  --     12.5625                14.7939                 9.0479
 IR Inten    --      3.0879                74.7834                59.3673

                     55                     56                     57
                      A                      A                      A
 Frequencies --   1673.2181              1698.1636              1826.5739
 Red. masses --      6.6168                 9.9867                10.4526
 Frc consts  --     10.9144                16.9679                20.5471
 IR Inten    --      8.2750                18.7044               242.0402

                     58                     59                     60
                      A                      A                      A
 Frequencies --   2889.2091              3018.6906              3061.2174
 Red. masses --      1.0843                 1.0812                 1.0845
 Frc consts  --      5.3326                 5.8049                 5.9876
 IR Inten    --    119.8623                 9.1357                13.6678

                     61                     62                     63
                      A                      A                      A
 Frequencies --   3168.2473              3172.1605              3177.1470
 Red. masses --      1.0889                 1.0881                 1.0854
 Frc consts  --      6.4398                 6.4513                 6.4554
 IR Inten    --      5.5453                 2.0794                 7.6795

                     64                     65                     66
                      A                      A                      A
 Frequencies --   3189.4541              3204.5511              3209.3451
 Red. masses --      1.0869                 1.0950                 1.0974
 Frc consts  --      6.5145                 6.6254                 6.6594
 IR Inten    --      3.3457                 8.7692                12.9417

 - Thermochemistry -
 -------------------
 Temperature   298.150 Kelvin.  Pressure   1.00000 Atm.
 Atom     1 has atomic number  8 and mass  15.99491

 Molecular mass:   199.07456 amu.
 Principal axes and moments of inertia in atomic units:
                           1         2         3
     Eigenvalues --   965.471195253.502775896.50766
           X            0.99998  -0.00535   0.00289
           Y            0.00529   0.99976   0.02103
           Z           -0.00300  -0.02101   0.99977
 This molecule is an asymmetric top.
 Rotational symmetry number  1.
 Warning -- assumption of classical behavior for rotation
           may cause significant error
 Rotational temperatures (Kelvin)      0.08971     0.01649     0.01469
 Rotational constants (GHZ):           1.86929     0.34353     0.30607
 Zero-point vibrational energy     471798.2 (Joules/Mol)
                                  112.76248 (Kcal/Mol)
 Warning -- explicit consideration of  19 degrees of freedom as
           vibrations may cause significant error
 Vibrational temperatures:     81.18   124.98   164.68   210.08   235.22
          (Kelvin)            276.08   361.72   414.89   471.88   473.58
                              541.61   590.78   692.45   701.76   712.61
                              746.86   796.47   832.49   881.39   917.35
                              967.21  1026.76  1100.88  1114.85  1202.61
                             1227.18  1236.16  1261.58  1292.11  1398.34
                             1415.29  1425.82  1431.45  1463.50  1513.31
                             1541.02  1559.73  1642.49  1669.40  1677.62
                             1710.95  1751.98  1824.57  1837.58  1865.48
                             1977.56  1994.64  2017.44  2033.61  2083.33
                             2162.90  2262.22  2292.11  2384.84  2407.39
                             2443.28  2628.03  4156.93  4343.22  4404.41
                             4558.40  4564.03  4571.21  4588.91  4610.63
                             4617.53

 Zero-point correction=                           0.179698 (Hartree/Particle)
 Thermal correction to Energy=                    0.191727
 Thermal correction to Enthalpy=                  0.192671
 Thermal correction to Gibbs Free Energy=         0.141463
 Sum of electronic and zero-point Energies=           -663.755817
 Sum of electronic and thermal Energies=              -663.743789
 Sum of electronic and thermal Enthalpies=            -663.742845
 Sum of electronic and thermal Free Energies=         -663.794052

                     E (Thermal)             CV                S
                      KCal/Mol        Cal/Mol-Kelvin    Cal/Mol-Kelvin
 Total                  120.310             47.481            107.776
 Electronic               0.000              0.000              0.000
 Translational            0.889              2.981             41.770
 Rotational               0.889              2.981             31.770
 Vibrational            118.533             41.520             34.235
 Vibration     1          0.596              1.975              4.578
 Vibration     2          0.601              1.958              3.729
 Vibration     3          0.607              1.937              3.192
 Vibration     4          0.617              1.907              2.724
 Vibration     5          0.623              1.887              2.509
 Vibration     6          0.634              1.851              2.210
 Vibration     7          0.663              1.760              1.721
 Vibration     8          0.685              1.695              1.484
 Vibration     9          0.711              1.620              1.270
 Vibration    10          0.712              1.617              1.264
 Vibration    11          0.747              1.520              1.053
 Vibration    12          0.775              1.447              0.924
 Vibration    13          0.838              1.292              0.707
 Vibration    14          0.844              1.277              0.689
 Vibration    15          0.851              1.260              0.670
 Vibration    16          0.874              1.208              0.612
 Vibration    17          0.909              1.132              0.537
 Vibration    18          0.935              1.078              0.488
 Vibration    19          0.972              1.005              0.428

                           ! Non-Optimized Parameters !
 Normal termination of Gaussian 16 at Thu May 18 05:08:58 2023.
