 Gaussian 16, Revision A.03,
 Gaussian 16:  ES64L-G16RevA.03 25-Dec-2016

 -----------------------------
 # opt freq b3lyp/6-31g(2df,p)
 -----------------------------

 -------------------
 Title Card Required
 -------------------
 Symbolic Z-matrix:
 Charge =  0 Multiplicity = 1

 SCF Done:  E(RB3LYP) =  -1106.81651283     A.U. after   26 cycles
 SCF Done:  E(RB3LYP) =  -1105.13075791     A.U. after   26 cycles
 SCF Done:  E(RB3LYP) =  -1106.59693204     A.U. after   27 cycles
 SCF Done:  E(RB3LYP) =  -1106.87153969     A.U. after   20 cycles
 SCF Done:  E(RB3LYP) =  -1106.58031789     A.U. after   28 cycles
 SCF Done:  E(RB3LYP) =  -1106.89902768     A.U. after   18 cycles
 SCF Done:  E(RB3LYP) =  -1106.91519040     A.U. after   18 cycles
 SCF Done:  E(RB3LYP) =  -1106.93442259     A.U. after   19 cycles
 SCF Done:  E(RB3LYP) =  -1106.93868877     A.U. after   19 cycles
 SCF Done:  E(RB3LYP) =  -1106.98380656     A.U. after   19 cycles
 SCF Done:  E(RB3LYP) =  -1107.39098420     A.U. after    8 cycles
 SCF Done:  E(RB3LYP) =  -1107.39098468     A.U. after    8 cycles
 SCF Done:  E(RB3LYP) =  -1107.39098509     A.U. after    8 cycles
 SCF Done:  E(RB3LYP) =  -1107.39098545     A.U. after    8 cycles
 SCF Done:  E(RB3LYP) =  -1107.39098580     A.U. after    8 cycles
 SCF Done:  E(RB3LYP) =  -1107.39098620     A.U. after    8 cycles
 SCF Done:  E(RB3LYP) =  -1107.39098651     A.U. after    8 cycles
 SCF Done:  E(RB3LYP) =  -1107.39098671     A.U. after    8 cycles
 SCF Done:  E(RB3LYP) =  -1107.39098680     A.U. after    8 cycles
 Optimization completed.
    -- Stationary point found.

 The electronic state is 1-A.
 Alpha  occ. eigenvalues --  -88.96068 -19.12304 -14.31784 -10.25529 -10.23924
 Alpha  occ. eigenvalues --  -10.23352 -10.22491 -10.22071 -10.21570 -10.21096
 Alpha  occ. eigenvalues --  -10.20662 -10.19926 -10.19610 -10.19226 -10.19210
 Alpha  occ. eigenvalues --  -10.18761 -10.17625 -10.17092  -8.01351  -5.97654
 Alpha  occ. eigenvalues --   -5.97624  -5.97195  -1.02854  -0.92085  -0.90389
 Alpha  occ. eigenvalues --   -0.82739  -0.81170  -0.80519  -0.77008  -0.74594
 Alpha  occ. eigenvalues --   -0.71663  -0.66701  -0.65080  -0.61617  -0.61187
 Alpha  occ. eigenvalues --   -0.57646  -0.55431  -0.55085  -0.52926  -0.52296
 Alpha  occ. eigenvalues --   -0.52092  -0.48248  -0.47639  -0.46296  -0.44722
 Alpha  occ. eigenvalues --   -0.44497  -0.43690  -0.41896  -0.41547  -0.40580
 Alpha  occ. eigenvalues --   -0.40035  -0.39264  -0.39037  -0.37119  -0.36930
 Alpha  occ. eigenvalues --   -0.36140  -0.35133  -0.34607  -0.32037  -0.31547
 Alpha  occ. eigenvalues --   -0.29272  -0.28492  -0.26217  -0.24306  -0.22096
 Alpha  occ. eigenvalues --   -0.21584  -0.16590
 Alpha virt. eigenvalues --   -0.09026  -0.05583  -0.02242  -0.01138   0.01608
 Alpha virt. eigenvalues --    0.02530   0.03516   0.06907   0.07660   0.10217
 Alpha virt. eigenvalues --    0.11036   0.11375   0.11749   0.12551   0.13027

 Mulliken charges:
               1
     1  O   -0.295736
     2  C    0.097703
     3  C    0.247374
     4  C   -0.184963
     5  C   -0.086234
     6  C   -0.084098
     7  C   -0.126718
     8  C   -0.045710
     9  C   -0.233983
    10  S    0.166332
    11  C   -0.165119
    12  C   -0.137039
    13  C    0.178257
    14  C   -0.235653
    15  C   -0.045655
    16  C   -0.134558
    17  C   -0.034203
    18  N   -0.290203
    19  H    0.065995
    20  H    0.116138
    21  H    0.103662
    22  H    0.090897
    23  H    0.080793
    24  H    0.091428
    25  H    0.103342
    26  H    0.148231
    27  H    0.136069
    28  H    0.107199
    29  H    0.131533
    30  H    0.096678
    31  H    0.138243
 Sum of Mulliken charges =  -0.00000

 Dipole moment (field-independent basis, Debye):
    X=              4.9315    Y=              0.8281    Z=             -0.4472  Tot=              5.0205
 Quadrupole moment (field-independent basis, Debye-Ang):
   XX=           -104.2895   YY=           -109.6565   ZZ=           -110.1785
   XY=             17.1596   XZ=             -0.0088   YZ=             -5.2239

 Normal termination of Gaussian 16 at Sat May 20 18:10:18 2023.

 ----------------------------------------------------------------------
 #N Geom=AllCheck Guess=TCheck SCRF=Check GenChk RB3LYP/6-31G(2df,p) Fr
 eq
 ----------------------------------------------------------------------

 Structure from the checkpoint file:  "OdCC1dCCdCCdCCdS2CdCC2dCCdCCdN1.chk"
 -------------------
 Title Card Required
 -------------------
 Charge =  0 Multiplicity = 1

                         Standard orientation:
 ---------------------------------------------------------------------
 Center     Atomic      Atomic             Coordinates (Angstroms)
 Number     Number       Type             X           Y           Z
 ---------------------------------------------------------------------
      1          8           0       -4.890672    1.586938    0.637767
      2          6           0       -4.627101    0.406097    0.533526
      3          6           0       -3.367295   -0.153769    0.022212
      4          6           0       -3.227614   -1.517024   -0.051511
      5          6           0       -2.028743   -2.064253   -0.656512
      6          6           0       -1.046181   -2.742614   -0.020592
      7          6           0        0.302263   -2.681782   -0.544465
      8          6           0        1.345821   -2.310391    0.237767
      9          6           0        2.572612   -1.716245   -0.233790
     10         16           0        3.042020   -0.390344    0.670360
     11          6           0        4.647153    0.265928    0.195540
     12          6           0        4.240404    1.517826   -0.107711
     13          6           0        2.803954    1.420342   -0.018520
     14          6           0        1.720584    2.151140   -0.329876
     15          6           0        0.362681    1.690219   -0.184958
     16          6           0       -0.751862    2.417793   -0.432090
     17          6           0       -2.099738    1.859957   -0.292001
     18          7           0       -2.230341    0.582232   -0.284456
     19          1           0       -5.364848   -0.371120    0.840293
     20          1           0       -3.999957   -2.153477    0.376302
     21          1           0       -1.752391   -1.593400   -1.596508
     22          1           0       -1.195215   -3.096532    0.998624
     23          1           0        0.397062   -2.566913   -1.622863
     24          1           0        1.194219   -2.303236    1.318388
     25          1           0        2.772013   -1.691177   -1.301865
     26          1           0        5.605010   -0.228160    0.270473
     27          1           0        4.845896    2.393004   -0.317247
     28          1           0        1.873312    3.143169   -0.760705
     29          1           0        0.216893    0.662467    0.136630
     30          1           0       -0.673176    3.467849   -0.705969
     31          1           0       -2.935001    2.552562   -0.174373
 ---------------------------------------------------------------------

 SCF Done:  E(RB3LYP) =  -1107.39098680     A.U. after    1 cycles
