 Gaussian 16, Revision A.03,
 Gaussian 16:  ES64L-G16RevA.03 25-Dec-2016

 -----------------------------
 # opt freq b3lyp/6-31g(2df,p)
 -----------------------------

 -------------------
 Title Card Required
 -------------------
 Symbolic Z-matrix:
 Charge =  0 Multiplicity = 1

 SCF Done:  E(RB3LYP) =  -1069.99608294     A.U. after   28 cycles
 SCF Done:  E(RB3LYP) =  -1070.16487495     A.U. after   20 cycles
 SCF Done:  E(RB3LYP) =  -1070.38162197     A.U. after   20 cycles
 SCF Done:  E(RB3LYP) =  -1070.49563524     A.U. after   21 cycles
 SCF Done:  E(RB3LYP) =  -1070.60870165     A.U. after   19 cycles
 SCF Done:  E(RB3LYP) =  -1070.69804016     A.U. after   20 cycles
 SCF Done:  E(RB3LYP) =  -1070.74329789     A.U. after   18 cycles
 SCF Done:  E(RB3LYP) =  -1070.74282766     A.U. after   17 cycles
 SCF Done:  E(RB3LYP) =  -1070.76811150     A.U. after   17 cycles
 SCF Done:  E(RB3LYP) =  -1070.78798939     A.U. after   16 cycles
 SCF Done:  E(RB3LYP) =  -1070.83225657     A.U. after   15 cycles
 SCF Done:  E(RB3LYP) =  -1070.83244955     A.U. after   16 cycles
 SCF Done:  E(RB3LYP) =  -1070.83246054     A.U. after   16 cycles
 SCF Done:  E(RB3LYP) =  -1070.83299931     A.U. after   14 cycles
 SCF Done:  E(RB3LYP) =  -1070.83313626     A.U. after   15 cycles
 SCF Done:  E(RB3LYP) =  -1070.83318756     A.U. after   14 cycles
 SCF Done:  E(RB3LYP) =  -1070.83322072     A.U. after   12 cycles
 SCF Done:  E(RB3LYP) =  -1070.83322811     A.U. after   12 cycles
 SCF Done:  E(RB3LYP) =  -1070.83322946     A.U. after    9 cycles
 Optimization completed.
    -- Stationary point found.
 Normal termination of Gaussian 16 at Wed May 17 11:29:00 2023.

 ----------------------------------------------------------------------
 #N Geom=AllCheck Guess=TCheck SCRF=Check GenChk RB3LYP/6-31G(2df,p) Fr
 eq
 ----------------------------------------------------------------------

 Structure from the checkpoint file:  "OdCC1dC2NCdNNdc3ncnnc3dS12.chk"
 -------------------
 Title Card Required
 -------------------
 Charge =  0 Multiplicity = 1

                         Standard orientation:
 ---------------------------------------------------------------------
 Center     Atomic      Atomic             Coordinates (Angstroms)
 Number     Number       Type             X           Y           Z
 ---------------------------------------------------------------------
      1          8           0       -4.980778   -2.281370   -0.004327
      2          6           0       -5.174549   -1.077176    0.001053
      3          6           0       -4.094805   -0.139881    0.004911
      4          6           0       -2.820407    0.149103    0.001674
      5          7           0       -1.563838   -0.296415   -0.003601
      6          6           0       -0.436990    0.504888   -0.004672
      7          7           0        0.711560   -0.057703   -0.009031
      8          7           0        1.739202    0.868483   -0.010600
      9          6           0        2.905561    0.350322   -0.005038
     10          7           0        3.346410   -0.960709    0.001254
     11          6           0        4.579217   -1.376109    0.008157
     12          7           0        5.733017   -0.645225    0.008685
     13          7           0        5.304485    0.640313    0.001220
     14          6           0        4.183631    1.041504   -0.004622
     15         16           0       -3.652714    1.718646    0.006388
     16          1           0       -6.187958   -0.635307    0.001850
     17          1           0       -1.407923   -1.298676   -0.005818
     18          1           0       -0.611532    1.578921   -0.001352
     19          1           0        4.751270   -2.449437    0.013463
 ---------------------------------------------------------------------

 SCF Done:  E(RB3LYP) =  -1070.83322946     A.U. after    1 cycles

 The electronic state is 1-A.
 Alpha  occ. eigenvalues --  -88.90425 -19.13171 -14.44626 -14.43239 -14.39967
 Alpha  occ. eigenvalues --  -14.39333 -14.37678 -14.37123 -10.32568 -10.30704
 Alpha  occ. eigenvalues --  -10.30595 -10.29964 -10.28883 -10.27847 -10.23797
 Alpha  occ. eigenvalues --   -7.96553  -5.93079  -5.92743  -5.91996  -1.09576
 Alpha  occ. eigenvalues --   -1.04352  -1.03675  -1.01056  -0.96237  -0.90380
 Alpha  occ. eigenvalues --   -0.88720  -0.84869  -0.72884  -0.70026  -0.69398
 Alpha  occ. eigenvalues --   -0.66907  -0.64419  -0.60827  -0.58719  -0.54239
 Alpha  occ. eigenvalues --   -0.52088  -0.50731  -0.50535  -0.50142  -0.47164
 Alpha  occ. eigenvalues --   -0.44088  -0.43237  -0.42997  -0.39880  -0.39679
 Alpha  occ. eigenvalues --   -0.37992  -0.37917  -0.35197  -0.34438  -0.34295
 Alpha  occ. eigenvalues --   -0.31070  -0.31068  -0.26747  -0.25955  -0.24098
 Alpha  occ. eigenvalues --   -0.20695
 Alpha virt. eigenvalues --   -0.14802  -0.08533  -0.05632  -0.04400  -0.03364
 Alpha virt. eigenvalues --    0.00801   0.02540   0.06967   0.08136   0.09591
 Alpha virt. eigenvalues --    0.11221   0.11337   0.12973   0.15300   0.16049

 Mulliken charges:
               1
     1  O   -0.295911
     2  C    0.019952
     3  C    0.107897
     4  C    0.319712
     5  N   -0.426815
     6  C    0.162358
     7  N   -0.249082
     8  N   -0.336581
     9  C    0.441858
    10  N   -0.259264
    11  C    0.135162
    12  N   -0.278487
    13  N    0.031953
    14  C    0.089930
    15  S   -0.199181
    16  H    0.096152
    17  H    0.299550
    18  H    0.161414
    19  H    0.179385
 Sum of Mulliken charges =  -0.00000

 Dipole moment (field-independent basis, Debye):
    X=              1.9770    Y=              0.7516    Z=              0.0101  Tot=              2.1151
 Quadrupole moment (field-independent basis, Debye-Ang):
   XX=           -105.1004   YY=            -92.9684   ZZ=            -90.3337
   XY=             -9.6798   XZ=             -0.0303   YZ=             -0.0282

  Exact polarizability: 355.708   3.231 148.698   0.095  -0.051  60.235
 Approx polarizability: 555.959  27.370 335.864   0.332  -0.229  99.763

                      1                      2                      3
                      A                      A                      A
 Frequencies --     23.6092                40.3704                42.8351
 Red. masses --      9.5592                 9.9629                 7.9726
 Frc consts  --      0.0031                 0.0096                 0.0086
 IR Inten    --      0.1053                 0.4855                 0.7395

                      4                      5                      6
                      A                      A                      A
 Frequencies --     91.5905                96.0190               129.6487
 Red. masses --     10.5708                 8.3180                13.2477
 Frc consts  --      0.0522                 0.0452                 0.1312
 IR Inten    --      6.4408                 0.1122                 2.3909

                      7                      8                      9
                      A                      A                      A
 Frequencies --    155.2155               171.7312               191.5088
 Red. masses --      8.2053                 4.7255                 2.7416
 Frc consts  --      0.1165                 0.0821                 0.0592
 IR Inten    --      2.3665                 0.0816                16.7252

                     10                     11                     12
                      A                      A                      A
 Frequencies --    235.2227               276.7243               285.8468
 Red. masses --      4.0703                10.2545                 9.7156
 Frc consts  --      0.1327                 0.4627                 0.4677
 IR Inten    --      2.7927                 2.1113                52.2650

                     13                     14                     15
                      A                      A                      A
 Frequencies --    351.2620               369.7242               373.6200
 Red. masses --     10.9401                 9.9918                 9.1782
 Frc consts  --      0.7953                 0.8047                 0.7549
 IR Inten    --      3.0092                32.0401                 2.3283

                     16                     17                     18
                      A                      A                      A
 Frequencies --    406.2371               511.6677               528.8428
 Red. masses --      8.1497                 7.7438                 5.2866
 Frc consts  --      0.7924                 1.1945                 0.8711
 IR Inten    --      2.1630                15.3139                 0.9295

                     19                     20                     21
                      A                      A                      A
 Frequencies --    548.1127               588.3904               628.1114
 Red. masses --      8.2168                 4.3465                10.6683
 Frc consts  --      1.4544                 0.8866                 2.4798
 IR Inten    --      1.4968                15.6933                12.4747

                     22                     23                     24
                      A                      A                      A
 Frequencies --    630.8109               674.4875               678.6742
 Red. masses --     11.7703                 5.9454                 1.3619
 Frc consts  --      2.7595                 1.5936                 0.3696
 IR Inten    --      4.4452                12.0033                94.4149

                     25                     26                     27
                      A                      A                      A
 Frequencies --    729.7933               821.2608               895.5923
 Red. masses --     10.9651                11.0213                11.3933
 Frc consts  --      3.4408                 4.3797                 5.3842
 IR Inten    --    153.0193                40.3157                25.6663

                     28                     29                     30
                      A                      A                      A
 Frequencies --    922.2939               933.6301               969.1541
 Red. masses --      7.5116                 1.3737                 6.5724
 Frc consts  --      3.7646                 0.7055                 3.6371
 IR Inten    --      3.6165                 5.9216               290.2394

                     31                     32                     33
                      A                      A                      A
 Frequencies --    975.8366               999.8642              1019.9554
 Red. masses --      1.4287                 1.6269                11.4742
 Frc consts  --      0.8016                 0.9583                 7.0329
 IR Inten    --     12.7094                 0.2371                85.2243

                     34                     35                     36
                      A                      A                      A
 Frequencies --   1109.5615              1140.6701              1227.8889
 Red. masses --      9.8268                 3.7786                 3.2893
 Frc consts  --      7.1280                 2.8967                 2.9219
 IR Inten    --     16.2959                36.2191               242.7650

                     37                     38                     39
                      A                      A                      A
 Frequencies --   1311.8330              1315.4255              1330.8688
 Red. masses --      1.7661                 1.4299                 1.4852
 Frc consts  --      1.7907                 1.4578                 1.5499
 IR Inten    --    127.0083                10.7105                19.0965

                     40                     41                     42
                      A                      A                      A
 Frequencies --   1414.1125              1470.3604              1494.3063
 Red. masses --      1.2367                 2.9433                10.2119
 Frc consts  --      1.4571                 3.7492                13.4349
 IR Inten    --      2.2777                21.6152                87.0852

                     43                     44                     45
                      A                      A                      A
 Frequencies --   1667.9215              1694.7499              1709.1593
 Red. masses --      8.9194                 7.3625                 8.6271
 Frc consts  --     14.6196                12.4591                14.8485
 IR Inten    --    345.8236              1590.4884               542.8848

                     46                     47                     48
                      A                      A                      A
 Frequencies --   1891.4509              2043.5797              2956.1221
 Red. masses --     11.6079                12.6520                 1.0839
 Frc consts  --     24.4677                31.1309                 5.5805
 IR Inten    --   1325.6090               149.8116               137.1594

                     49                     50                     51
                      A                      A                      A
 Frequencies --   3158.9408              3187.5617              3563.3799
 Red. masses --      1.0917                 1.0893                 1.0753
 Frc consts  --      6.4187                 6.5211                 8.0443
 IR Inten    --      1.5717                 2.2546                50.4957

 - Thermochemistry -
 -------------------
 Temperature   298.150 Kelvin.  Pressure   1.00000 Atm.
 Atom     1 has atomic number  8 and mass  15.99491

 Molecular mass:   220.01673 amu.
 Principal axes and moments of inertia in atomic units:
                           1         2         3
     Eigenvalues --   997.54229********************
           X            1.00000  -0.00238   0.00002
           Y            0.00238   1.00000  -0.00010
           Z           -0.00002   0.00010   1.00000
 This molecule is an asymmetric top.
 Rotational symmetry number  1.
 Warning -- assumption of classical behavior for rotation
           may cause significant error
 Rotational temperatures (Kelvin)      0.08683     0.00766     0.00704
 Rotational constants (GHZ):           1.80919     0.15967     0.14673
 Zero-point vibrational energy     298979.9 (Joules/Mol)
                                   71.45791 (Kcal/Mol)
 Warning -- explicit consideration of  20 degrees of freedom as
           vibrations may cause significant error
 Vibrational temperatures:     33.97    58.08    61.63   131.78   138.15
          (Kelvin)            186.54   223.32   247.08   275.54   338.43
                              398.14   411.27   505.39   531.95   537.56
                              584.48   736.18   760.89   788.61   846.56
                              903.71   907.60   970.44   976.46  1050.01
                             1181.61  1288.56  1326.98  1343.29  1394.40
                             1404.01  1438.58  1467.49  1596.41  1641.17
                             1766.66  1887.44  1892.60  1914.82  2034.59
                             2115.52  2149.97  2399.77  2438.37  2459.10
                             2721.38  2940.26  4253.20  4545.01  4586.19
                             5126.91

 Zero-point correction=                           0.113875 (Hartree/Particle)
 Thermal correction to Energy=                    0.127933
 Thermal correction to Enthalpy=                  0.128877
 Thermal correction to Gibbs Free Energy=         0.070075
 Sum of electronic and zero-point Energies=          -1070.719354
 Sum of electronic and thermal Energies=             -1070.705297
 Sum of electronic and thermal Enthalpies=           -1070.704352
 Sum of electronic and thermal Free Energies=        -1070.763154

                     E (Thermal)             CV                S
                      KCal/Mol        Cal/Mol-Kelvin    Cal/Mol-Kelvin
 Total                   80.279             48.855            123.759
 Electronic               0.000              0.000              0.000
 Translational            0.889              2.981             42.068
 Rotational               0.889              2.981             33.294
 Vibrational             78.502             42.893             48.396
 Vibration     1          0.593              1.985              6.305
 Vibration     2          0.594              1.981              5.241
 Vibration     3          0.595              1.980              5.123
 Vibration     4          0.602              1.955              3.626
 Vibration     5          0.603              1.952              3.534
 Vibration     6          0.612              1.924              2.951
 Vibration     7          0.620              1.897              2.607
 Vibration     8          0.626              1.877              2.416
 Vibration     9          0.634              1.852              2.213
 Vibration    10          0.655              1.787              1.839
 Vibration    11          0.678              1.716              1.554
 Vibration    12          0.684              1.700              1.498
 Vibration    13          0.728              1.573              1.161
 Vibration    14          0.742              1.534              1.081
 Vibration    15          0.745              1.526              1.065
 Vibration    16          0.771              1.457              0.940
 Vibration    17          0.867              1.224              0.630
 Vibration    18          0.884              1.186              0.590
 Vibration    19          0.903              1.144              0.548
 Vibration    20          0.946              1.057              0.470

                           ! Non-Optimized Parameters !
 Normal termination of Gaussian 16 at Wed May 17 12:17:06 2023.
