 Gaussian 16, Revision A.03,
 Gaussian 16:  ES64L-G16RevA.03 25-Dec-2016

 -----------------------------
 # opt freq b3lyp/6-31g(2df,p)
 -----------------------------

 -------------------
 Title Card Required
 -------------------
 Symbolic Z-matrix:
 Charge =  0 Multiplicity = 1

 SCF Done:  E(RB3LYP) =  -936.124554374     A.U. after   19 cycles
 SCF Done:  E(RB3LYP) =  -936.204441545     A.U. after   17 cycles
 SCF Done:  E(RB3LYP) =  -936.277760847     A.U. after   15 cycles
 SCF Done:  E(RB3LYP) =  -936.374019090     A.U. after   15 cycles
 SCF Done:  E(RB3LYP) =  -936.447816989     A.U. after   16 cycles
 SCF Done:  E(RB3LYP) =  -936.484485953     A.U. after   16 cycles
 SCF Done:  E(RB3LYP) =  -936.508783341     A.U. after   15 cycles
 SCF Done:  E(RB3LYP) =  -936.524545929     A.U. after   16 cycles
 SCF Done:  E(RB3LYP) =  -936.525252564     A.U. after   17 cycles
 SCF Done:  E(RB3LYP) =  -936.537491522     A.U. after   15 cycles
 SCF Done:  E(RB3LYP) =  -936.611197899     A.U. after   11 cycles
 SCF Done:  E(RB3LYP) =  -936.611291583     A.U. after   11 cycles
 SCF Done:  E(RB3LYP) =  -936.611373785     A.U. after   11 cycles
 SCF Done:  E(RB3LYP) =  -936.611602229     A.U. after   12 cycles
 SCF Done:  E(RB3LYP) =  -936.611671421     A.U. after   11 cycles
 SCF Done:  E(RB3LYP) =  -936.611703301     A.U. after   11 cycles
 SCF Done:  E(RB3LYP) =  -936.611706908     A.U. after    9 cycles
 SCF Done:  E(RB3LYP) =  -936.611707218     A.U. after    7 cycles
 SCF Done:  E(RB3LYP) =  -936.611707445     A.U. after    7 cycles
 Optimization completed.
    -- Stationary point found.
 Normal termination of Gaussian 16 at Fri May 19 09:30:42 2023.

 ----------------------------------------------------------------------
 #N Geom=AllCheck Guess=TCheck SCRF=Check GenChk RB3LYP/6-31G(2df,p) Fr
 eq
 ----------------------------------------------------------------------

 Structure from the checkpoint file:  "OdCC1dCCdC2CdCCdCCdCCdS12.chk"
 -------------------
 Title Card Required
 -------------------
 Charge =  0 Multiplicity = 1

                         Standard orientation:
 ---------------------------------------------------------------------
 Center     Atomic      Atomic             Coordinates (Angstroms)
 Number     Number       Type             X           Y           Z
 ---------------------------------------------------------------------
      1          8           0        5.860462   -0.335210    0.001158
      2          6           0        4.933676    0.448680    0.001068
      3          6           0        3.532865    0.050317    0.000152
      4          6           0        3.019931   -1.233245   -0.000954
      5          6           0        1.618098   -1.274652   -0.001765
      6          6           0        1.024620   -0.017569   -0.001174
      7          6           0       -0.367005    0.359745   -0.001517
      8          6           0       -1.416582   -0.493725    0.000571
      9          6           0       -2.794754   -0.082415   -0.000151
     10          6           0       -3.836238   -0.937020    0.001750
     11          6           0       -5.273652   -0.568644    0.001028
     12          6           0       -5.759981    0.715780    0.643540
     13          6           0       -5.759719    0.714368   -0.644346
     14         16           0        2.245549    1.218446    0.000195
     15          1           0        5.109858    1.546822    0.001666
     16          1           0        3.666471   -2.101274   -0.001252
     17          1           0        1.045589   -2.193260   -0.003069
     18          1           0       -0.574485    1.427667   -0.003561
     19          1           0       -1.231812   -1.566508    0.003063
     20          1           0       -2.987295    0.989364   -0.002423
     21          1           0       -3.625210   -2.005847    0.003930
     22          1           0       -5.944002   -1.429278    0.001923
     23          1           0       -5.899951    1.216210    1.585948
     24          1           0       -5.899206    1.212938   -1.587825
 ---------------------------------------------------------------------

 SCF Done:  E(RB3LYP) =  -936.611707445     A.U. after    1 cycles

 The electronic state is 1-A.
 Alpha  occ. eigenvalues --  -88.91528 -19.12415 -10.26479 -10.23549 -10.21885
 Alpha  occ. eigenvalues --  -10.21628 -10.21548 -10.21502 -10.20376 -10.20281
 Alpha  occ. eigenvalues --  -10.20255 -10.19865 -10.19675 -10.19166  -7.97719
 Alpha  occ. eigenvalues --   -5.94084  -5.93750  -5.93523  -1.03026  -0.89231
 Alpha  occ. eigenvalues --   -0.89100  -0.82116  -0.77485  -0.74754  -0.72602
 Alpha  occ. eigenvalues --   -0.66070  -0.62742  -0.59990  -0.58052  -0.55787
 Alpha  occ. eigenvalues --   -0.54747  -0.52642  -0.51205  -0.50012  -0.48192
 Alpha  occ. eigenvalues --   -0.45192  -0.43221  -0.42215  -0.41096  -0.41063
 Alpha  occ. eigenvalues --   -0.39566  -0.37890  -0.37449  -0.36592  -0.35194
 Alpha  occ. eigenvalues --   -0.35012  -0.34708  -0.31628  -0.27306  -0.26386
 Alpha  occ. eigenvalues --   -0.26219  -0.24859  -0.20210
 Alpha virt. eigenvalues --   -0.07801  -0.02701   0.00054   0.01374   0.02831
 Alpha virt. eigenvalues --    0.06964   0.08589   0.10134   0.10383   0.11097
 Alpha virt. eigenvalues --    0.12068   0.12889   0.13542   0.14097   0.15066

 Mulliken charges:
               1
     1  O   -0.276242
     2  C    0.056536
     3  C    0.099231
     4  C   -0.158156
     5  C   -0.214314
     6  C    0.223007
     7  C   -0.190059
     8  C   -0.073753
     9  C   -0.070545
    10  C   -0.081162
    11  C   -0.080452
    12  C   -0.133445
    13  C   -0.133605
    14  S   -0.044114
    15  H    0.074178
    16  H    0.138425
    17  H    0.114978
    18  H    0.099199
    19  H    0.091237
    20  H    0.083816
    21  H    0.087157
    22  H    0.081355
    23  H    0.153375
    24  H    0.153355
 Sum of Mulliken charges =  -0.00000

 Dipole moment (field-independent basis, Debye):
    X=             -5.8071    Y=              0.5506    Z=             -0.0017  Tot=              5.8331
 Quadrupole moment (field-independent basis, Debye-Ang):
   XX=           -102.0491   YY=            -80.5103   ZZ=            -87.9996
   XY=              1.5186   XZ=             -0.0065   YZ=             -0.0025

  Exact polarizability: 386.338  10.567 136.927  -0.017  -0.013  78.030
 Approx polarizability: 596.145  37.059 251.690  -0.058  -0.018 137.944

                      1                      2                      3
                      A                      A                      A
 Frequencies --     28.5819                34.3556                50.3925
 Red. masses --      3.8875                 5.6425                 6.3042
 Frc consts  --      0.0019                 0.0039                 0.0094
 IR Inten    --      0.1038                 0.4804                 0.7591

                      4                      5                      6
                      A                      A                      A
 Frequencies --     83.8367               105.1883               121.4045
 Red. masses --      2.5250                 3.8284                 6.2610
 Frc consts  --      0.0105                 0.0250                 0.0544
 IR Inten    --      0.1036                 2.6899                 1.8827

                      7                      8                      9
                      A                      A                      A
 Frequencies --    183.0577               191.7851               226.3022
 Red. masses --      5.8394                 3.3546                 2.4955
 Frc consts  --      0.1153                 0.0727                 0.0753
 IR Inten    --      5.7518                 3.5998                 0.0126

                     10                     11                     12
                      A                      A                      A
 Frequencies --    244.6959               250.2778               320.2859
 Red. masses --      2.6925                 6.9220                 4.5757
 Frc consts  --      0.0950                 0.2555                 0.2766
 IR Inten    --      5.4090                 0.9142                 0.0192

                     13                     14                     15
                      A                      A                      A
 Frequencies --    344.3469               432.1546               451.7266
 Red. masses --      3.5783                 6.5953                 2.8326
 Frc consts  --      0.2500                 0.7257                 0.3406
 IR Inten    --      0.0103                14.1707                 2.9522

                     16                     17                     18
                      A                      A                      A
 Frequencies --    457.2946               523.7437               581.3642
 Red. masses --      5.4335                 4.2524                 6.9568
 Frc consts  --      0.6695                 0.6873                 1.3853
 IR Inten    --      2.8205                 6.1192                 2.6208

                     19                     20                     21
                      A                      A                      A
 Frequencies --    603.6597               609.8577               715.4841
 Red. masses --      1.6746                 3.2828                 2.5230
 Frc consts  --      0.3595                 0.7194                 0.7610
 IR Inten    --    102.8112                 0.0640                87.7083

                     22                     23                     24
                      A                      A                      A
 Frequencies --    740.5215               773.9665               797.5767
 Red. masses --      6.6225                 2.9453                 4.0622
 Frc consts  --      2.1397                 1.0395                 1.5225
 IR Inten    --      1.1373                 0.4557                16.8839

                     25                     26                     27
                      A                      A                      A
 Frequencies --    824.9583               831.4339               855.4093
 Red. masses --      5.0749                 1.3110                 1.4498
 Frc consts  --      2.0349                 0.5340                 0.6250
 IR Inten    --     57.5414                22.7447                 3.8117

                     28                     29                     30
                      A                      A                      A
 Frequencies --    864.0698               898.4498               916.6261
 Red. masses --      1.9660                 1.8639                 2.1163
 Frc consts  --      0.8648                 0.8865                 1.0476
 IR Inten    --      2.9716                 1.1741                 0.0040

                     31                     32                     33
                      A                      A                      A
 Frequencies --    932.5099               973.5296               996.5467
 Red. masses --      1.4060                 1.1300                 1.5283
 Frc consts  --      0.7204                 0.6310                 0.8943
 IR Inten    --      1.7102                 0.0338                36.7711

                     34                     35                     36
                      A                      A                      A
 Frequencies --   1010.9332              1026.6931              1039.1459
 Red. masses --      1.4860                 1.7258                 1.7585
 Frc consts  --      0.8948                 1.0718                 1.1188
 IR Inten    --     37.5122                 0.0087                66.8471

                     37                     38                     39
                      A                      A                      A
 Frequencies --   1040.3601              1066.8366              1123.8268
 Red. masses --      1.0889                 1.2520                 2.9023
 Frc consts  --      0.6944                 0.8395                 2.1597
 IR Inten    --     39.0985                 3.8799                17.1031

                     40                     41                     42
                      A                      A                      A
 Frequencies --   1159.4754              1167.3373              1213.4922
 Red. masses --      4.2345                 2.8422                 2.6060
 Frc consts  --      3.3541                 2.2819                 2.2610
 IR Inten    --    171.2719                10.8253                 8.5133

                     43                     44                     45
                      A                      A                      A
 Frequencies --   1247.4611              1262.6035              1313.8182
 Red. masses --      1.3472                 1.4468                 1.5072
 Frc consts  --      1.2352                 1.3590                 1.5329
 IR Inten    --      0.7195                93.3938                19.5493

                     46                     47                     48
                      A                      A                      A
 Frequencies --   1337.6109              1365.0847              1385.4824
 Red. masses --      1.3380                 1.6262                 3.7897
 Frc consts  --      1.4105                 1.7855                 4.2860
 IR Inten    --      1.2381                 0.8439               109.7814

                     49                     50                     51
                      A                      A                      A
 Frequencies --   1398.4270              1437.2801              1471.3155
 Red. masses --      1.2849                 1.3889                 4.0371
 Frc consts  --      1.4805                 1.6904                 5.1492
 IR Inten    --      6.6058                34.8878               309.6765

                     52                     53                     54
                      A                      A                      A
 Frequencies --   1555.6296              1651.0020              1679.2825
 Red. masses --      5.0750                 5.1065                 5.0471
 Frc consts  --      7.2360                 8.2011                 8.3856
 IR Inten    --     41.9735                51.7255                69.7141

                     55                     56                     57
                      A                      A                      A
 Frequencies --   1740.1761              1763.8510              2885.6967
 Red. masses --      5.0426                 9.4010                 1.0820
 Frc consts  --      8.9968                17.2325                 5.3084
 IR Inten    --    114.4366               506.0163               147.0896

                     58                     59                     60
                      A                      A                      A
 Frequencies --   3081.1553              3136.4866              3138.2758
 Red. masses --      1.0846                 1.0898                 1.0866
 Frc consts  --      6.0664                 6.3169                 6.3053
 IR Inten    --     63.0139                14.0967                 2.8096

                     61                     62                     63
                      A                      A                      A
 Frequencies --   3144.8731              3152.8420              3210.9437
 Red. masses --      1.0887                 1.0855                 1.0887
 Frc consts  --      6.3442                 6.3573                 6.6131
 IR Inten    --      6.0017                37.6107                 4.2286

                     64                     65                     66
                      A                      A                      A
 Frequencies --   3229.3903              3263.3779              3314.4975
 Red. masses --      1.0967                 1.0840                 1.1510
 Frc consts  --      6.7386                 6.8017                 7.4502
 IR Inten    --      0.7968                 0.6098                 0.9134

 - Thermochemistry -
 -------------------
 Temperature   298.150 Kelvin.  Pressure   1.00000 Atm.
 Atom     1 has atomic number  8 and mass  15.99491

 Molecular mass:   202.04524 amu.
 Principal axes and moments of inertia in atomic units:
                           1         2         3
     Eigenvalues --   578.53086********************
           X            1.00000  -0.00080  -0.00000
           Y            0.00080   1.00000  -0.00006
           Z            0.00000   0.00006   1.00000
 This molecule is an asymmetric top.
 Rotational symmetry number  1.
 Warning -- assumption of classical behavior for rotation
           may cause significant error
 Rotational temperatures (Kelvin)      0.14971     0.00832     0.00796
 Rotational constants (GHZ):           3.11952     0.17329     0.16579
 Zero-point vibrational energy     472405.7 (Joules/Mol)
                                  112.90766 (Kcal/Mol)
 Warning -- explicit consideration of  20 degrees of freedom as
           vibrations may cause significant error
 Vibrational temperatures:     41.12    49.43    72.50   120.62   151.34
          (Kelvin)            174.67   263.38   275.94   325.60   352.06
                              360.09   460.82   495.44   621.77   649.93
                              657.94   753.55   836.45   868.53   877.45
                             1029.42  1065.45  1113.57  1147.53  1186.93
                             1196.25  1230.74  1243.20  1292.67  1318.82
                             1341.67  1400.69  1433.81  1454.51  1477.18
                             1495.10  1496.85  1534.94  1616.94  1668.23
                             1679.54  1745.94  1794.82  1816.60  1890.29
                             1924.52  1964.05  1993.40  2012.02  2067.93
                             2116.89  2238.20  2375.42  2416.11  2503.73
                             2537.79  4151.87  4433.10  4512.70  4515.28
                             4524.77  4536.24  4619.83  4646.37  4695.27
                             4768.82

 Zero-point correction=                           0.179930 (Hartree/Particle)
 Thermal correction to Energy=                    0.193645
 Thermal correction to Enthalpy=                  0.194589
 Thermal correction to Gibbs Free Energy=         0.137201
 Sum of electronic and zero-point Energies=           -936.431778
 Sum of electronic and thermal Energies=              -936.418063
 Sum of electronic and thermal Enthalpies=            -936.417118
 Sum of electronic and thermal Free Energies=         -936.474506

                     E (Thermal)             CV                S
                      KCal/Mol        Cal/Mol-Kelvin    Cal/Mol-Kelvin
 Total                  121.514             49.819            120.782
 Electronic               0.000              0.000              0.000
 Translational            0.889              2.981             41.814
 Rotational               0.889              2.981             32.550
 Vibrational            119.737             43.857             46.418
 Vibration     1          0.593              1.984              5.925
 Vibration     2          0.594              1.983              5.561
 Vibration     3          0.595              1.977              4.802
 Vibration     4          0.601              1.960              3.799
 Vibration     5          0.605              1.945              3.356
 Vibration     6          0.609              1.931              3.078
 Vibration     7          0.631              1.863              2.297
 Vibration     8          0.634              1.851              2.211
 Vibration     9          0.650              1.801              1.908
 Vibration    10          0.660              1.772              1.768
 Vibration    11          0.663              1.762              1.729
 Vibration    12          0.706              1.635              1.309
 Vibration    13          0.723              1.587              1.192
 Vibration    14          0.793              1.400              0.852
 Vibration    15          0.810              1.357              0.791
 Vibration    16          0.815              1.345              0.774
 Vibration    17          0.879              1.197              0.601
 Vibration    18          0.938              1.072              0.483
 Vibration    19          0.962              1.024              0.443
 Vibration    20          0.969              1.011              0.433

                           ! Non-Optimized Parameters !
 Normal termination of Gaussian 16 at Fri May 19 10:27:23 2023.
