 Gaussian 16, Revision A.03,
 Gaussian 16:  ES64L-G16RevA.03 25-Dec-2016

 -----------------------------
 # opt freq b3lyp/6-31g(2df,p)
 -----------------------------

 -------------------
 Title Card Required
 -------------------
 Symbolic Z-matrix:
 Charge =  0 Multiplicity = 1

 SCF Done:  E(RB3LYP) =  -2256.84387875     A.U. after   17 cycles
 SCF Done:  E(RB3LYP) =  -2256.87170781     A.U. after   14 cycles
 SCF Done:  E(RB3LYP) =  -2256.88304721     A.U. after   15 cycles
 SCF Done:  E(RB3LYP) =  -2256.89143005     A.U. after   17 cycles
 SCF Done:  E(RB3LYP) =  -2256.89719712     A.U. after   17 cycles
 SCF Done:  E(RB3LYP) =  -2256.90182556     A.U. after   14 cycles
 SCF Done:  E(RB3LYP) =  -2256.90962972     A.U. after   13 cycles
 SCF Done:  E(RB3LYP) =  -2256.91735102     A.U. after   15 cycles
 SCF Done:  E(RB3LYP) =  -2256.91882708     A.U. after   14 cycles
 SCF Done:  E(RB3LYP) =  -2256.91956959     A.U. after   14 cycles
 SCF Done:  E(RB3LYP) =  -2256.93201037     A.U. after   11 cycles
 SCF Done:  E(RB3LYP) =  -2256.93201991     A.U. after   11 cycles
 SCF Done:  E(RB3LYP) =  -2256.93202584     A.U. after   11 cycles
 SCF Done:  E(RB3LYP) =  -2256.93202832     A.U. after   11 cycles
 SCF Done:  E(RB3LYP) =  -2256.93202941     A.U. after    9 cycles
 SCF Done:  E(RB3LYP) =  -2256.93202966     A.U. after    8 cycles
 SCF Done:  E(RB3LYP) =  -2256.93202974     A.U. after    8 cycles
 SCF Done:  E(RB3LYP) =  -2256.93202976     A.U. after    7 cycles
 SCF Done:  E(RB3LYP) =  -2256.93202977     A.U. after    7 cycles
 Optimization completed.
    -- Stationary point found.

 The electronic state is 1-A.
 Alpha  occ. eigenvalues --  -89.00655 -88.93578 -88.93125 -88.82969 -19.14718
 Alpha  occ. eigenvalues --  -19.14435 -14.42479 -14.36905 -14.36336 -10.28910
 Alpha  occ. eigenvalues --  -10.28379 -10.28263 -10.28000 -10.27357 -10.26392
 Alpha  occ. eigenvalues --  -10.25845 -10.24699 -10.22356  -8.06044  -7.99826
 Alpha  occ. eigenvalues --   -7.99325  -7.89512  -6.02397  -6.02275  -6.01848
 Alpha  occ. eigenvalues --   -5.96309  -5.95898  -5.95853  -5.95450  -5.95408
 Alpha  occ. eigenvalues --   -5.94804  -5.85958  -5.85523  -5.85154  -1.05835
 Alpha  occ. eigenvalues --   -1.04786  -1.03618  -0.96740  -0.90789  -0.87739
 Alpha  occ. eigenvalues --   -0.85003  -0.82208  -0.76299  -0.74235  -0.73137
 Alpha  occ. eigenvalues --   -0.68360  -0.65938  -0.65441  -0.62568  -0.60191
 Alpha  occ. eigenvalues --   -0.58719  -0.55586  -0.54753  -0.53067  -0.51606
 Alpha  occ. eigenvalues --   -0.50968  -0.48585  -0.48401  -0.47654  -0.46753
 Alpha  occ. eigenvalues --   -0.45956  -0.45247  -0.44296  -0.42956  -0.42321
 Alpha  occ. eigenvalues --   -0.41863  -0.40894  -0.39512  -0.38769  -0.38556
 Alpha  occ. eigenvalues --   -0.37536  -0.36349  -0.35136  -0.31627  -0.30266
 Alpha  occ. eigenvalues --   -0.29778  -0.28887  -0.28218  -0.27918  -0.27421
 Alpha  occ. eigenvalues --   -0.24499  -0.21959  -0.20627
 Alpha virt. eigenvalues --   -0.08587  -0.07206  -0.04631  -0.03621  -0.03527
 Alpha virt. eigenvalues --   -0.01389  -0.00119   0.01729   0.02394   0.03381
 Alpha virt. eigenvalues --    0.05544   0.07402   0.07891   0.08579   0.08942

 Mulliken charges:
               1
     1  O   -0.234362
     2  C    0.102598
     3  C    0.090622
     4  C    0.080698
     5  O   -0.225089
     6  C   -0.082713
     7  C   -0.238573
     8  N   -0.160824
     9  C   -0.021661
    10  S   -0.033863
    11  S   -0.070350
    12  C   -0.114455
    13  C   -0.286150
    14  S    0.196299
    15  N   -0.272782
    16  N   -0.234080
    17  C    0.330311
    18  S   -0.474231
    19  H    0.072019
    20  H    0.076046
    21  H    0.131493
    22  H    0.124060
    23  H    0.157382
    24  H    0.158426
    25  H    0.169903
    26  H    0.167826
    27  H    0.168745
    28  H    0.132584
    29  H    0.290119
 Sum of Mulliken charges =  -0.00000

 Dipole moment (field-independent basis, Debye):
    X=             -4.6985    Y=              6.1363    Z=              0.5779  Tot=              7.7501
 Quadrupole moment (field-independent basis, Debye-Ang):
   XX=           -170.8208   YY=           -145.9069   ZZ=           -132.3427
   XY=             10.3494   XZ=            -15.7447   YZ=              0.5475

 Normal termination of Gaussian 16 at Tue May 16 23:48:09 2023.

 ----------------------------------------------------------------------
 #N Geom=AllCheck Guess=TCheck SCRF=Check GenChk RB3LYP/6-31G(2df,p) Fr
 eq
 ----------------------------------------------------------------------

 Structure from the checkpoint file:  "OdCCqCdOrdCCNdCSSC1C[SH]dNNC1dS.chk"
 -------------------
 Title Card Required
 -------------------
 Charge =  0 Multiplicity = 1

                         Standard orientation:
 ---------------------------------------------------------------------
 Center     Atomic      Atomic             Coordinates (Angstroms)
 Number     Number       Type             X           Y           Z
 ---------------------------------------------------------------------
      1          8           0        6.638229   -0.668937    2.058281
      2          6           0        5.860832    0.114322    1.581835
      3          6           0        5.051199   -0.083635    0.342627
      4          6           0        5.225194   -1.304036   -0.492718
      5          8           0        6.181644   -2.035012   -0.457660
      6          6           0        4.173762    0.891133    0.038629
      7          6           0        3.244570    0.997263   -1.135852
      8          7           0        2.051802    1.737451   -0.742980
      9          6           0        0.927621    1.240953   -1.011947
     10         16           0       -0.550465    2.154060   -0.581455
     11         16           0       -2.034161    0.847850   -1.166710
     12          6           0       -2.282668   -0.215998    0.349838
     13          6           0       -2.897949    0.568673    1.511067
     14         16           0       -4.698120    0.756905    1.224466
     15          7           0       -5.225371   -0.729829    0.974018
     16          7           0       -4.369789   -1.511642    0.170988
     17          6           0       -3.060502   -1.448416   -0.104056
     18         16           0       -2.281281   -2.675881   -0.930515
     19          1           0        5.657365    1.097555    2.069365
     20          1           0        4.382041   -1.509978   -1.188572
     21          1           0        4.123700    1.755662    0.701493
     22          1           0        3.014251    0.020817   -1.583927
     23          1           0        3.756891    1.589613   -1.910305
     24          1           0        0.730227    0.282591   -1.511612
     25          1           0       -1.287814   -0.560894    0.629799
     26          1           0       -2.437125    1.551545    1.636327
     27          1           0       -2.822787    0.013375    2.450647
     28          1           0       -4.470341    1.393818    0.007484
     29          1           0       -4.829829   -2.362866   -0.128985
 ---------------------------------------------------------------------

 SCF Done:  E(RB3LYP) =  -2256.93202977     A.U. after    1 cycles
