 Gaussian 16, Revision A.03,
 Gaussian 16:  ES64L-G16RevA.03 25-Dec-2016

 -----------------------------
 # opt freq b3lyp/6-31g(2df,p)
 -----------------------------

 -------------------
 Title Card Required
 -------------------
 Symbolic Z-matrix:
 Charge =  0 Multiplicity = 1

 SCF Done:  E(RB3LYP) =  -741.380948445     A.U. after   26 cycles
 SCF Done:  E(RB3LYP) =  -741.633102555     A.U. after   19 cycles
 SCF Done:  E(RB3LYP) =  -741.912500218     A.U. after   19 cycles
 SCF Done:  E(RB3LYP) =  -742.038039436     A.U. after   17 cycles
 SCF Done:  E(RB3LYP) =  -742.111048680     A.U. after   16 cycles
 SCF Done:  E(RB3LYP) =  -742.187945630     A.U. after   16 cycles
 SCF Done:  E(RB3LYP) =  -742.191505282     A.U. after   12 cycles
 SCF Done:  E(RB3LYP) =  -742.240704431     A.U. after   15 cycles
 SCF Done:  E(RB3LYP) =  -742.274877911     A.U. after   15 cycles
 SCF Done:  E(RB3LYP) =  -742.299645094     A.U. after   15 cycles
 SCF Done:  E(RB3LYP) =  -742.609957426     A.U. after   10 cycles
 SCF Done:  E(RB3LYP) =  -742.609959107     A.U. after   11 cycles
 SCF Done:  E(RB3LYP) =  -742.609959807     A.U. after    9 cycles
 SCF Done:  E(RB3LYP) =  -742.609960475     A.U. after   10 cycles
 SCF Done:  E(RB3LYP) =  -742.609960628     A.U. after    7 cycles
 SCF Done:  E(RB3LYP) =  -742.609960695     A.U. after    7 cycles
 SCF Done:  E(RB3LYP) =  -742.609960734     A.U. after    7 cycles
 SCF Done:  E(RB3LYP) =  -742.609960770     A.U. after    7 cycles
 SCF Done:  E(RB3LYP) =  -742.609960804     A.U. after    6 cycles
 Optimization completed.
    -- Stationary point found.
 Normal termination of Gaussian 16 at Wed May 17 06:36:10 2023.

 ----------------------------------------------------------------------
 #N Geom=AllCheck Guess=TCheck SCRF=Check GenChk RB3LYP/6-31G(2df,p) Fr
 eq
 ----------------------------------------------------------------------

 Structure from the checkpoint file:  "OdCCNNCc1ccc2c3c1ncc2dCC3.chk"
 -------------------
 Title Card Required
 -------------------
 Charge =  0 Multiplicity = 1

                         Standard orientation:
 ---------------------------------------------------------------------
 Center     Atomic      Atomic             Coordinates (Angstroms)
 Number     Number       Type             X           Y           Z
 ---------------------------------------------------------------------
      1          8           0        6.420591   -0.758205   -0.394453
      2          6           0        5.440416   -0.373756    0.188137
      3          6           0        4.031622   -0.437100   -0.371648
      4          7           0        3.216448    0.629004    0.202268
      5          7           0        1.845378    0.501329   -0.303823
      6          6           0        1.000037    1.440283    0.446577
      7          6           0       -0.460643    1.152428    0.209629
      8          6           0       -1.402502    2.192134    0.004640
      9          6           0       -2.791576    2.020571   -0.180986
     10          6           0       -3.302684    0.716578   -0.172618
     11          6           0       -2.346278   -0.233809    0.021244
     12          6           0       -0.994507   -0.140318    0.211654
     13          7           0       -0.489251   -1.475037    0.364213
     14          6           0       -1.503986   -2.298524    0.267025
     15          6           0       -2.785982   -1.590876    0.040904
     16          6           0       -4.128419   -1.556651   -0.153031
     17          6           0       -4.595985   -0.091210   -0.309891
     18          1           0        5.493240    0.050948    1.215806
     19          1           0        3.611574   -1.399484   -0.038173
     20          1           0        4.064780   -0.464700   -1.470464
     21          1           0        3.544503    1.504678   -0.205474
     22          1           0        1.555843   -0.436484   -0.022668
     23          1           0        1.232263    2.461024    0.117331
     24          1           0        1.223339    1.399138    1.526888
     25          1           0       -1.019928    3.208688   -0.011723
     26          1           0       -3.412872    2.897929   -0.328662
     27          1           0       -1.352803   -3.368414    0.350398
     28          1           0       -4.827541   -2.383635   -0.201649
     29          1           0       -5.346122    0.158057    0.453021
     30          1           0       -5.096107    0.052327   -1.277432
 ---------------------------------------------------------------------

 SCF Done:  E(RB3LYP) =  -742.609960804     A.U. after    1 cycles

 The electronic state is 1-A.
 Alpha  occ. eigenvalues --  -19.13667 -14.34384 -14.34197 -14.33335 -10.26730
 Alpha  occ. eigenvalues --  -10.23968 -10.23013 -10.22024 -10.21268 -10.20820
 Alpha  occ. eigenvalues --  -10.20580 -10.20383 -10.20277 -10.19877 -10.19690
 Alpha  occ. eigenvalues --  -10.19132 -10.16694  -1.04368  -0.96422  -0.95823
 Alpha  occ. eigenvalues --   -0.87460  -0.84180  -0.81141  -0.75065  -0.72990
 Alpha  occ. eigenvalues --   -0.72191  -0.68991  -0.65865  -0.62556  -0.60077
 Alpha  occ. eigenvalues --   -0.59146  -0.57558  -0.55005  -0.50669  -0.49462
 Alpha  occ. eigenvalues --   -0.47785  -0.47230  -0.46036  -0.45834  -0.44957
 Alpha  occ. eigenvalues --   -0.44031  -0.43273  -0.42186  -0.41058  -0.40981
 Alpha  occ. eigenvalues --   -0.40411  -0.39105  -0.38260  -0.37054  -0.36093
 Alpha  occ. eigenvalues --   -0.35207  -0.34070  -0.33650  -0.30524  -0.29185
 Alpha  occ. eigenvalues --   -0.27188  -0.24851  -0.23689  -0.23067  -0.19491
 Alpha virt. eigenvalues --   -0.08250  -0.02177  -0.01197   0.02274   0.08727
 Alpha virt. eigenvalues --    0.09355   0.10209   0.10803   0.11695   0.12162
 Alpha virt. eigenvalues --    0.13006   0.13505   0.13860   0.14846   0.15685

 Mulliken charges:
               1
     1  O   -0.237720
     2  C    0.141874
     3  C   -0.208139
     4  N   -0.294174
     5  N   -0.315992
     6  C   -0.232508
     7  C    0.169977
     8  C   -0.192687
     9  C   -0.292373
    10  C    0.106479
    11  C    0.489781
    12  C    0.054556
    13  N   -0.343485
    14  C   -0.129961
    15  C    0.161299
    16  C   -0.251920
    17  C   -0.404294
    18  H    0.087494
    19  H    0.138223
    20  H    0.121692
    21  H    0.231072
    22  H    0.255507
    23  H    0.100818
    24  H    0.109188
    25  H    0.090984
    26  H    0.101654
    27  H    0.130614
    28  H    0.121706
    29  H    0.144768
    30  H    0.145566
 Sum of Mulliken charges =  -0.00000

 Dipole moment (field-independent basis, Debye):
    X=             -6.0179    Y=              0.4975    Z=              0.4228  Tot=              6.0532
 Quadrupole moment (field-independent basis, Debye-Ang):
   XX=           -104.3316   YY=            -88.0147   ZZ=           -100.7796
   XY=              9.7599   XZ=              5.1686   YZ=             -0.9778

  Exact polarizability: 233.447   8.572 171.766   9.582   0.390  87.516
 Approx polarizability: 353.329  17.276 299.669  19.125  -0.827 146.846

                      1                      2                      3
                      A                      A                      A
 Frequencies --     15.7426                34.8865                48.4100
 Red. masses --      5.3612                 4.5653                 2.3592
 Frc consts  --      0.0008                 0.0033                 0.0033
 IR Inten    --      0.2038                 1.4384                 1.3747

                      4                      5                      6
                      A                      A                      A
 Frequencies --     70.3032                75.7934               105.4840
 Red. masses --      4.8124                 3.4899                 3.2098
 Frc consts  --      0.0140                 0.0118                 0.0210
 IR Inten    --      2.4278                 8.6566                 5.6998

                      7                      8                      9
                      A                      A                      A
 Frequencies --    152.5218               170.4695               195.9109
 Red. masses --      3.9571                 3.3479                 4.0546
 Frc consts  --      0.0542                 0.0573                 0.0917
 IR Inten    --      0.2586                 0.5551                 0.8018

                     10                     11                     12
                      A                      A                      A
 Frequencies --    232.8404               245.4268               309.5916
 Red. masses --      4.9380                 2.5363                 3.7870
 Frc consts  --      0.1577                 0.0900                 0.2139
 IR Inten    --      2.8537                 0.1624                 2.3353

                     13                     14                     15
                      A                      A                      A
 Frequencies --    341.1435               385.9844               425.1006
 Red. masses --      4.3868                 2.8795                 5.3931
 Frc consts  --      0.3008                 0.2528                 0.5742
 IR Inten    --      5.3910                 5.5633                 1.2370

                     16                     17                     18
                      A                      A                      A
 Frequencies --    496.7282               526.6015               531.6801
 Red. masses --      3.9279                 4.5008                 3.9114
 Frc consts  --      0.5710                 0.7354                 0.6515
 IR Inten    --      5.9062                 0.5204                 7.3822

                     19                     20                     21
                      A                      A                      A
 Frequencies --    546.8312               592.7304               601.7762
 Red. masses --      3.8654                 4.3107                 4.6739
 Frc consts  --      0.6810                 0.8923                 0.9972
 IR Inten    --      5.3031                 2.5235                 2.7543

                     22                     23                     24
                      A                      A                      A
 Frequencies --    616.2579               693.1774               700.6540
 Red. masses --      5.7924                 5.6222                 3.7162
 Frc consts  --      1.2961                 1.5916                 1.0749
 IR Inten    --      1.1285                 0.7286                 9.8326

                     25                     26                     27
                      A                      A                      A
 Frequencies --    756.5231               770.4109               780.9802
 Red. masses --      1.4785                 1.7336                 3.9032
 Frc consts  --      0.4986                 0.6062                 1.4026
 IR Inten    --      6.4436                 1.0752                 8.2748

                     28                     29                     30
                      A                      A                      A
 Frequencies --    800.9327               803.5764               830.3184
 Red. masses --      4.5598                 1.9840                 1.8244
 Frc consts  --      1.7234                 0.7548                 0.7411
 IR Inten    --      1.7083                 7.0483                16.5895

                     31                     32                     33
                      A                      A                      A
 Frequencies --    888.7203               900.3077               904.3980
 Red. masses --      1.7535                 2.3148                 1.6097
 Frc consts  --      0.8160                 1.1054                 0.7758
 IR Inten    --     25.4275                 8.9226                 5.2246

                     34                     35                     36
                      A                      A                      A
 Frequencies --    923.8374               933.7085               949.3974
 Red. masses --      1.2755                 1.2667                 2.0323
 Frc consts  --      0.6414                 0.6506                 1.0793
 IR Inten    --      0.1639                66.7860                 1.7115

                     37                     38                     39
                      A                      A                      A
 Frequencies --    990.3133              1005.1902              1012.7163
 Red. masses --      5.3110                 2.5569                 2.3529
 Frc consts  --      3.0688                 1.5222                 1.4218
 IR Inten    --      0.8795                18.5948                 3.8001

                     40                     41                     42
                      A                      A                      A
 Frequencies --   1051.8064              1067.9466              1084.1575
 Red. masses --      2.8334                 3.9788                 2.8384
 Frc consts  --      1.8468                 2.6736                 1.9657
 IR Inten    --     22.9111                58.6216                 7.0456

                     43                     44                     45
                      A                      A                      A
 Frequencies --   1106.6934              1122.7038              1135.2489
 Red. masses --      2.7133                 3.3981                 1.1376
 Frc consts  --      1.9580                 2.5235                 0.8638
 IR Inten    --      5.5327                 2.9200                 0.9419

                     46                     47                     48
                      A                      A                      A
 Frequencies --   1149.1880              1170.4676              1183.3216
 Red. masses --      2.5697                 1.5694                 2.9147
 Frc consts  --      1.9994                 1.2668                 2.4046
 IR Inten    --      5.9472                 0.9223                 4.2617

                     49                     50                     51
                      A                      A                      A
 Frequencies --   1216.6797              1221.4386              1249.9991
 Red. masses --      1.5801                 1.2403                 1.5473
 Frc consts  --      1.3781                 1.0903                 1.4245
 IR Inten    --      8.6311                17.5094                24.7536

                     52                     53                     54
                      A                      A                      A
 Frequencies --   1268.8692              1291.8601              1305.0028
 Red. masses --      1.5104                 1.3919                 1.6913
 Frc consts  --      1.4328                 1.3686                 1.6971
 IR Inten    --      5.5422                 1.4611                13.7263

                     55                     56                     57
                      A                      A                      A
 Frequencies --   1322.1862              1343.3303              1378.2221
 Red. masses --      1.4678                 2.4541                 3.1248
 Frc consts  --      1.5118                 2.6092                 3.4971
 IR Inten    --      9.8447                34.0670                 6.6230

                     58                     59                     60
                      A                      A                      A
 Frequencies --   1387.4597              1407.0893              1428.1699
 Red. masses --      1.7647                 1.2456                 1.0975
 Frc consts  --      2.0016                 1.4531                 1.3189
 IR Inten    --      4.7408                 5.4233                10.4369

                     61                     62                     63
                      A                      A                      A
 Frequencies --   1467.7944              1477.3068              1479.7942
 Red. masses --      1.1831                 5.2840                 5.1292
 Frc consts  --      1.5018                 6.7945                 6.6176
 IR Inten    --      4.6787                 1.3870                70.3214

                     64                     65                     66
                      A                      A                      A
 Frequencies --   1480.6591              1506.4996              1522.2697
 Red. masses --      1.1166                 1.1209                 2.9751
 Frc consts  --      1.4423                 1.4989                 4.0619
 IR Inten    --     34.0132                 6.4613                 2.4087

                     67                     68                     69
                      A                      A                      A
 Frequencies --   1565.6627              1617.2240              1626.5923
 Red. masses --      1.1144                 7.9152                 9.5802
 Frc consts  --      1.6095                12.1970                14.9342
 IR Inten    --     33.9763                34.2565                 1.1544

                     70                     71                     72
                      A                      A                      A
 Frequencies --   1730.7954              1837.9688              2886.4927
 Red. masses --     10.2972                10.4089                 1.0833
 Frc consts  --     18.1745                20.7171                 5.3179
 IR Inten    --      0.5858               192.3790                90.2201

                     73                     74                     75
                      A                      A                      A
 Frequencies --   2949.7590              2987.4891              3023.5324
 Red. masses --      1.0701                 1.0566                 1.0603
 Frc consts  --      5.4856                 5.5561                 5.7110
 IR Inten    --     44.6600                27.7339                12.8924

                     76                     77                     78
                      A                      A                      A
 Frequencies --   3025.7903              3032.9585              3052.2706
 Red. masses --      1.1024                 1.0889                 1.0994
 Frc consts  --      5.9463                 5.9014                 6.0349
 IR Inten    --     27.8165                34.0579                 5.7724

                     79                     80                     81
                      A                      A                      A
 Frequencies --   3163.9386              3183.9619              3203.4620
 Red. masses --      1.0864                 1.0928                 1.0941
 Frc consts  --      6.4077                 6.5270                 6.6152
 IR Inten    --      7.3220                22.0865                 7.2520

                     82                     83                     84
                      A                      A                      A
 Frequencies --   3203.8984              3434.1955              3454.1883
 Red. masses --      1.0939                 1.0749                 1.0748
 Frc consts  --      6.6160                 7.4689                 7.5557
 IR Inten    --      7.4613                14.5159                24.7793

 - Thermochemistry -
 -------------------
 Temperature   298.150 Kelvin.  Pressure   1.00000 Atm.
 Atom     1 has atomic number  8 and mass  15.99491

 Molecular mass:   227.10586 amu.
 Principal axes and moments of inertia in atomic units:
                           1         2         3
     Eigenvalues --  1435.149108994.62618**********
           X            0.99999   0.00209   0.00302
           Y           -0.00210   0.99999   0.00351
           Z           -0.00302  -0.00351   0.99999
 This molecule is an asymmetric top.
 Rotational symmetry number  1.
 Warning -- assumption of classical behavior for rotation
           may cause significant error
 Rotational temperatures (Kelvin)      0.06035     0.00963     0.00844
 Rotational constants (GHZ):           1.25753     0.20065     0.17581
 Zero-point vibrational energy     629078.6 (Joules/Mol)
                                  150.35338 (Kcal/Mol)
 Warning -- explicit consideration of  22 degrees of freedom as
           vibrations may cause significant error
 Vibrational temperatures:     22.65    50.19    69.65   101.15   109.05
          (Kelvin)            151.77   219.44   245.27   281.87   335.01
                              353.11   445.43   490.83   555.35   611.63
                              714.68   757.66   764.97   786.77   852.81
                              865.82   886.66   997.33  1008.08  1088.47
                             1108.45  1123.66  1152.36  1156.17  1194.64
                             1278.67  1295.34  1301.23  1329.20  1343.40
                             1365.97  1424.84  1446.24  1457.07  1513.31
                             1536.54  1559.86  1592.29  1615.32  1633.37
                             1653.43  1684.04  1702.54  1750.53  1757.38
                             1798.47  1825.62  1858.70  1877.61  1902.33
                             1932.75  1982.95  1996.25  2024.49  2054.82
                             2111.83  2125.51  2129.09  2130.34  2167.52
                             2190.21  2252.64  2326.82  2340.30  2490.23
                             2644.43  4153.02  4244.05  4298.33  4350.19
                             4353.44  4363.75  4391.54  4552.20  4581.01
                             4609.07  4609.70  4941.04  4969.81

 Zero-point correction=                           0.239603 (Hartree/Particle)
 Thermal correction to Energy=                    0.254371
 Thermal correction to Enthalpy=                  0.255315
 Thermal correction to Gibbs Free Energy=         0.194781
 Sum of electronic and zero-point Energies=           -742.370357
 Sum of electronic and thermal Energies=              -742.355590
 Sum of electronic and thermal Enthalpies=            -742.354646
 Sum of electronic and thermal Free Energies=         -742.415179

                     E (Thermal)             CV                S
                      KCal/Mol        Cal/Mol-Kelvin    Cal/Mol-Kelvin
 Total                  159.620             55.438            127.404
 Electronic               0.000              0.000              0.000
 Translational            0.889              2.981             42.163
 Rotational               0.889              2.981             33.249
 Vibrational            157.843             49.476             51.992
 Vibration     1          0.593              1.986              7.110
 Vibration     2          0.594              1.983              5.530
 Vibration     3          0.595              1.978              4.881
 Vibration     4          0.598              1.968              4.145
 Vibration     5          0.599              1.965              3.997
 Vibration     6          0.605              1.945              3.350
 Vibration     7          0.619              1.900              2.641
 Vibration     8          0.626              1.879              2.430
 Vibration     9          0.636              1.846              2.171
 Vibration    10          0.654              1.791              1.857
 Vibration    11          0.660              1.770              1.763
 Vibration    12          0.699              1.655              1.365
 Vibration    13          0.721              1.593              1.207
 Vibration    14          0.755              1.500              1.016
 Vibration    15          0.787              1.416              0.875
 Vibration    16          0.852              1.257              0.666
 Vibration    17          0.882              1.191              0.595
 Vibration    18          0.887              1.180              0.583
 Vibration    19          0.902              1.147              0.551
 Vibration    20          0.950              1.047              0.462
 Vibration    21          0.960              1.028              0.447
 Vibration    22          0.976              0.998              0.423

                           ! Non-Optimized Parameters !
 Normal termination of Gaussian 16 at Wed May 17 09:20:24 2023.
