 Gaussian 16, Revision A.03,
 Gaussian 16:  ES64L-G16RevA.03 25-Dec-2016

 -----------------------------
 # opt freq b3lyp/6-31g(2df,p)
 -----------------------------

 -------------------
 Title Card Required
 -------------------
 Symbolic Z-matrix:
 Charge =  0 Multiplicity = 1

 SCF Done:  E(RB3LYP) =  -723.508729920     A.U. after   19 cycles
 SCF Done:  E(RB3LYP) =  -723.623349679     A.U. after   15 cycles
 SCF Done:  E(RB3LYP) =  -723.771779958     A.U. after   16 cycles
 SCF Done:  E(RB3LYP) =  -723.835301998     A.U. after   16 cycles
 SCF Done:  E(RB3LYP) =  -723.933814830     A.U. after   16 cycles
 SCF Done:  E(RB3LYP) =  -724.018470404     A.U. after   15 cycles
 SCF Done:  E(RB3LYP) =  -724.046328113     A.U. after   14 cycles
 SCF Done:  E(RB3LYP) =  -724.060840204     A.U. after   15 cycles
 SCF Done:  E(RB3LYP) =  -724.066651443     A.U. after   14 cycles
 SCF Done:  E(RB3LYP) =  -724.071659148     A.U. after   14 cycles
 SCF Done:  E(RB3LYP) =  -724.123006053     A.U. after   15 cycles
 SCF Done:  E(RB3LYP) =  -724.132488188     A.U. after   14 cycles
 SCF Done:  E(RB3LYP) =  -724.135031943     A.U. after   14 cycles
 SCF Done:  E(RB3LYP) =  -724.135795097     A.U. after   13 cycles
 SCF Done:  E(RB3LYP) =  -724.136054396     A.U. after   12 cycles
 SCF Done:  E(RB3LYP) =  -724.136087900     A.U. after   10 cycles
 SCF Done:  E(RB3LYP) =  -724.136101740     A.U. after    9 cycles
 SCF Done:  E(RB3LYP) =  -724.136103616     A.U. after    8 cycles
 SCF Done:  E(RB3LYP) =  -724.136104515     A.U. after    7 cycles
 Optimization completed.
    -- Stationary point found.
 Normal termination of Gaussian 16 at Wed May 17 18:47:12 2023.

 ----------------------------------------------------------------------
 #N Geom=AllCheck Guess=TCheck SCRF=Check GenChk RB3LYP/6-31G(2df,p) Fr
 eq
 ----------------------------------------------------------------------

 Structure from the checkpoint file:  "OdCc1cnn2c3cqcccccc12rCdCCd3.chk"
 -------------------
 Title Card Required
 -------------------
 Charge =  0 Multiplicity = 1

                         Standard orientation:
 ---------------------------------------------------------------------
 Center     Atomic      Atomic             Coordinates (Angstroms)
 Number     Number       Type             X           Y           Z
 ---------------------------------------------------------------------
      1          8           0       -4.482504   -0.875439   -0.018037
      2          6           0       -3.472417   -0.218938    0.127920
      3          6           0       -2.123507   -0.747414    0.008802
      4          6           0       -1.744430   -2.082850   -0.306819
      5          7           0       -0.438475   -2.234514   -0.346933
      6          7           0        0.072487   -0.992853   -0.057171
      7          6           0        1.474039   -0.844354    0.053580
      8          6           0        2.285369    0.401514   -0.084738
      9          6           0        1.885156    1.659988   -0.355573
     10          6           0        0.437818    1.958600   -0.549327
     11          6           0       -0.342846    3.233381   -0.252520
     12          6           0       -1.251164    2.609948    0.508091
     13          6           0       -0.485387    1.294540    0.530413
     14          6           0       -0.916437   -0.077100    0.168502
     15          6           0        3.699548   -1.367944    0.256108
     16          6           0        3.679547   -0.029478    0.068742
     17          6           0        2.331899   -1.879952    0.240216
     18          1           0       -3.531950    0.865943    0.367492
     19          1           0       -2.400455   -2.915035   -0.513495
     20          1           0        2.632403    2.440673   -0.476278
     21          1           0        0.150369    1.591154   -1.545130
     22          1           0       -0.228557    4.251773   -0.602371
     23          1           0       -2.156692    2.926682    1.009330
     24          1           0        0.078669    1.224951    1.469666
     25          1           0        4.574783   -1.986794    0.400344
     26          1           0        4.519191    0.650307    0.040496
     27          1           0        2.041056   -2.914213    0.342597
 ---------------------------------------------------------------------

 SCF Done:  E(RB3LYP) =  -724.136104515     A.U. after    1 cycles

 The electronic state is 1-A.
 Alpha  occ. eigenvalues --  -19.12135 -14.42384 -14.35212 -10.26154 -10.24372
 Alpha  occ. eigenvalues --  -10.23274 -10.22733 -10.22693 -10.22524 -10.21602
 Alpha  occ. eigenvalues --  -10.21515 -10.21399 -10.21242 -10.19260 -10.19146
 Alpha  occ. eigenvalues --  -10.18909 -10.18786  -1.05753  -1.02761  -0.90641
 Alpha  occ. eigenvalues --   -0.88456  -0.83944  -0.80658  -0.78869  -0.71964
 Alpha  occ. eigenvalues --   -0.69734  -0.68461  -0.64707  -0.63267  -0.60457
 Alpha  occ. eigenvalues --   -0.57349  -0.56088  -0.54267  -0.53353  -0.52298
 Alpha  occ. eigenvalues --   -0.50307  -0.49129  -0.46267  -0.46093  -0.44082
 Alpha  occ. eigenvalues --   -0.43753  -0.42020  -0.41039  -0.40038  -0.39860
 Alpha  occ. eigenvalues --   -0.38775  -0.38521  -0.37727  -0.36888  -0.35589
 Alpha  occ. eigenvalues --   -0.34484  -0.29789  -0.28801  -0.28255  -0.25802
 Alpha  occ. eigenvalues --   -0.25191  -0.24420  -0.20925
 Alpha virt. eigenvalues --   -0.08265  -0.03534  -0.01427   0.00436   0.07243
 Alpha virt. eigenvalues --    0.08770   0.09377   0.10030   0.10760   0.11426
 Alpha virt. eigenvalues --    0.11608   0.12778   0.13233   0.14278   0.15381

 Mulliken charges:
               1
     1  O   -0.291839
     2  C    0.075536
     3  C   -0.113731
     4  C   -0.047735
     5  N   -0.256020
     6  N   -0.171722
     7  C    0.283833
     8  C    0.272029
     9  C   -0.255276
    10  C   -0.052399
    11  C   -0.148027
    12  C   -0.129714
    13  C   -0.139356
    14  C    0.315941
    15  C   -0.110191
    16  C   -0.187895
    17  C   -0.211850
    18  H    0.055138
    19  H    0.147952
    20  H    0.114668
    21  H    0.133802
    22  H    0.119165
    23  H    0.126013
    24  H    0.126294
    25  H    0.108284
    26  H    0.105289
    27  H    0.131812
 Sum of Mulliken charges =   0.00000

 Dipole moment (field-independent basis, Debye):
    X=              3.8775    Y=              3.9809    Z=              0.3981  Tot=              5.5715
 Quadrupole moment (field-independent basis, Debye-Ang):
   XX=           -108.5330   YY=            -89.0081   ZZ=            -96.1502
   XY=             -4.5424   XZ=             -1.1761   YZ=             -2.0569

  Exact polarizability: 233.045  -8.964 184.252  -0.324  -4.981  78.209
 Approx polarizability: 370.782 -20.730 327.020  -0.993 -16.058 141.615

                      1                      2                      3
                      A                      A                      A
 Frequencies --     58.5678                88.9648               114.8883
 Red. masses --      7.0573                 4.5288                 5.2498
 Frc consts  --      0.0143                 0.0211                 0.0408
 IR Inten    --      0.5987                 0.1814                 1.8709

                      4                      5                      6
                      A                      A                      A
 Frequencies --    133.7131               168.4844               204.9502
 Red. masses --      4.8715                 4.6067                 3.6038
 Frc consts  --      0.0513                 0.0770                 0.0892
 IR Inten    --      2.9748                 5.9517                 2.3991

                      7                      8                      9
                      A                      A                      A
 Frequencies --    243.5681               277.6758               303.4025
 Red. masses --      3.4635                 4.9192                 5.1949
 Frc consts  --      0.1211                 0.2235                 0.2818
 IR Inten    --      1.5801                 4.7655                 2.7081

                     10                     11                     12
                      A                      A                      A
 Frequencies --    305.8887               349.1439               353.6284
 Red. masses --      3.8819                 4.5925                 4.0142
 Frc consts  --      0.2140                 0.3298                 0.2958
 IR Inten    --      0.9057                 1.0748                 1.0855

                     13                     14                     15
                      A                      A                      A
 Frequencies --    393.2359               421.3114               475.2837
 Red. masses --      5.8167                 4.6401                 3.3733
 Frc consts  --      0.5300                 0.4853                 0.4490
 IR Inten    --      2.7430                 1.0478                 2.2664

                     16                     17                     18
                      A                      A                      A
 Frequencies --    504.7383               556.3029               623.3063
 Red. masses --      5.5960                 3.1105                 5.3460
 Frc consts  --      0.8400                 0.5672                 1.2237
 IR Inten    --      1.0448                 0.2113                 3.5512

                     19                     20                     21
                      A                      A                      A
 Frequencies --    673.3521               679.9676               701.7118
 Red. masses --      3.6457                 2.6827                 4.1124
 Frc consts  --      0.9739                 0.7308                 1.1931
 IR Inten    --     19.2286                 8.7163                 7.3204

                     22                     23                     24
                      A                      A                      A
 Frequencies --    725.7505               759.2246               768.9138
 Red. masses --      2.0288                 4.4242                 3.3427
 Frc consts  --      0.6296                 1.5025                 1.1644
 IR Inten    --     11.9132                 6.0404                70.0052

                     25                     26                     27
                      A                      A                      A
 Frequencies --    773.0234               808.9159               823.7556
 Red. masses --      2.2707                 5.0030                 2.2195
 Frc consts  --      0.7994                 1.9288                 0.8874
 IR Inten    --     19.2999                15.7852                11.8970

                     28                     29                     30
                      A                      A                      A
 Frequencies --    845.8692               887.6293               899.9620
 Red. masses --      2.3751                 1.4146                 2.2243
 Frc consts  --      1.0012                 0.6567                 1.0614
 IR Inten    --     21.9509                 9.5540                 7.0540

                     31                     32                     33
                      A                      A                      A
 Frequencies --    910.0698               928.0105               934.1212
 Red. masses --      1.3518                 1.3776                 1.4493
 Frc consts  --      0.6596                 0.6990                 0.7451
 IR Inten    --      9.7346                 0.7126                 1.1195

                     34                     35                     36
                      A                      A                      A
 Frequencies --    958.6067               969.8031               976.5507
 Red. masses --      3.5486                 2.8296                 2.7777
 Frc consts  --      1.9213                 1.5680                 1.5607
 IR Inten    --     14.7945                 2.0547                 1.0052

                     37                     38                     39
                      A                      A                      A
 Frequencies --   1008.5106              1026.8380              1031.9497
 Red. masses --      2.7839                 2.5456                 1.8022
 Frc consts  --      1.6683                 1.5814                 1.1307
 IR Inten    --      8.8330                 1.4031                 0.8344

                     40                     41                     42
                      A                      A                      A
 Frequencies --   1060.5475              1090.4886              1112.2602
 Red. masses --      2.5562                 1.5057                 1.1691
 Frc consts  --      1.6940                 1.0549                 0.8521
 IR Inten    --     15.7885                 3.0419                 4.2778

                     43                     44                     45
                      A                      A                      A
 Frequencies --   1135.2193              1153.0428              1180.0084
 Red. masses --      1.5547                 2.6460                 2.4874
 Frc consts  --      1.1804                 2.0727                 2.0406
 IR Inten    --     10.3230                11.8759                 0.8493

                     46                     47                     48
                      A                      A                      A
 Frequencies --   1186.8205              1212.1458              1219.7887
 Red. masses --      1.6129                 1.5788                 1.6625
 Frc consts  --      1.3385                 1.3668                 1.4574
 IR Inten    --      0.8616                 0.5236                17.3518

                     49                     50                     51
                      A                      A                      A
 Frequencies --   1249.9913              1285.0387              1297.7274
 Red. masses --      2.2359                 1.7269                 1.3980
 Frc consts  --      2.0583                 1.6801                 1.3871
 IR Inten    --     38.1273                 1.1845                 7.8979

                     52                     53                     54
                      A                      A                      A
 Frequencies --   1325.8827              1346.5669              1356.1401
 Red. masses --      2.2564                 2.0987                 1.9804
 Frc consts  --      2.3371                 2.2421                 2.1459
 IR Inten    --      8.0683                24.3871                12.5697

                     55                     56                     57
                      A                      A                      A
 Frequencies --   1392.6820              1413.8648              1426.7718
 Red. masses --      2.2525                 5.6033                 1.4989
 Frc consts  --      2.5741                 6.5995                 1.7978
 IR Inten    --     18.7750                62.5812                47.3839

                     58                     59                     60
                      A                      A                      A
 Frequencies --   1445.4173              1499.4895              1546.8097
 Red. masses --      4.7752                 6.6462                 7.5715
 Frc consts  --      5.8780                 8.8046                10.6735
 IR Inten    --     46.0777                10.9216                62.1336

                     61                     62                     63
                      A                      A                      A
 Frequencies --   1596.3375              1621.3313              1631.1634
 Red. masses --      7.2941                 5.8435                 6.2299
 Frc consts  --     10.9514                 9.0504                 9.7661
 IR Inten    --    120.4375                 5.5652                 5.9942

                     64                     65                     66
                      A                      A                      A
 Frequencies --   1681.8033              1778.5874              2879.3358
 Red. masses --      8.8530                 9.7261                 1.0804
 Frc consts  --     14.7533                18.1275                 5.2774
 IR Inten    --     30.3253               421.3933               109.4317

                     67                     68                     69
                      A                      A                      A
 Frequencies --   2995.4876              3016.0463              3159.8135
 Red. masses --      1.0809                 1.0815                 1.0897
 Frc consts  --      5.7142                 5.7961                 6.4106
 IR Inten    --      3.6303                 7.3016                11.0623

                     70                     71                     72
                      A                      A                      A
 Frequencies --   3198.6178              3219.9186              3229.5431
 Red. masses --      1.0849                 1.0867                 1.1146
 Frc consts  --      6.5400                 6.6384                 6.8492
 IR Inten    --      4.6002                 5.9524                18.4945

                     73                     74                     75
                      A                      A                      A
 Frequencies --   3242.0545              3257.8413              3259.6667
 Red. masses --      1.1022                 1.0961                 1.0973
 Frc consts  --      6.8259                 6.8541                 6.8692
 IR Inten    --     11.1053                 0.4742                 0.2962

 - Thermochemistry -
 -------------------
 Temperature   298.150 Kelvin.  Pressure   1.00000 Atm.
 Atom     1 has atomic number  8 and mass  15.99491

 Molecular mass:   222.07931 amu.
 Principal axes and moments of inertia in atomic units:
                           1         2         3
     Eigenvalues --  2215.503904351.454406393.25524
           X            0.99990  -0.01412  -0.00062
           Y            0.01412   0.99990  -0.00237
           Z            0.00065   0.00236   1.00000
 This molecule is an asymmetric top.
 Rotational symmetry number  1.
 Warning -- assumption of classical behavior for rotation
           may cause significant error
 Rotational temperatures (Kelvin)      0.03909     0.01990     0.01355
 Rotational constants (GHZ):           0.81460     0.41474     0.28229
 Zero-point vibrational energy     540555.6 (Joules/Mol)
                                  129.19589 (Kcal/Mol)
 Warning -- explicit consideration of  17 degrees of freedom as
           vibrations may cause significant error
 Vibrational temperatures:     84.27   128.00   165.30   192.38   242.41
          (Kelvin)            294.88   350.44   399.51   436.53   440.11
                              502.34   508.79   565.78   606.17   683.83
                              726.21   800.40   896.80   968.80   978.32
                             1009.61  1044.19  1092.35  1106.30  1112.21
                             1163.85  1185.20  1217.02  1277.10  1294.84
                             1309.39  1335.20  1343.99  1379.22  1395.33
                             1405.04  1451.02  1477.39  1484.75  1525.89
                             1568.97  1600.29  1633.33  1658.97  1697.77
                             1707.57  1744.01  1755.00  1798.46  1848.88
                             1867.14  1907.65  1937.41  1951.18  2003.76
                             2034.24  2052.81  2079.63  2157.43  2225.51
                             2296.77  2332.73  2346.88  2419.74  2558.99
                             4142.72  4309.84  4339.42  4546.27  4602.10
                             4632.74  4646.59  4664.59  4687.31  4689.93

 Zero-point correction=                           0.205887 (Hartree/Particle)
 Thermal correction to Energy=                    0.218457
 Thermal correction to Enthalpy=                  0.219401
 Thermal correction to Gibbs Free Energy=         0.166893
 Sum of electronic and zero-point Energies=           -723.930218
 Sum of electronic and thermal Energies=              -723.917648
 Sum of electronic and thermal Enthalpies=            -723.916704
 Sum of electronic and thermal Free Energies=         -723.969212

                     E (Thermal)             CV                S
                      KCal/Mol        Cal/Mol-Kelvin    Cal/Mol-Kelvin
 Total                  137.084             50.812            110.512
 Electronic               0.000              0.000              0.000
 Translational            0.889              2.981             42.096
 Rotational               0.889              2.981             32.488
 Vibrational            135.306             44.850             35.927
 Vibration     1          0.596              1.974              4.505
 Vibration     2          0.602              1.957              3.683
 Vibration     3          0.608              1.937              3.185
 Vibration     4          0.613              1.920              2.892
 Vibration     5          0.625              1.881              2.452
 Vibration     6          0.640              1.833              2.088
 Vibration     7          0.659              1.773              1.777
 Vibration     8          0.679              1.715              1.548
 Vibration     9          0.695              1.667              1.398
 Vibration    10          0.696              1.663              1.384
 Vibration    11          0.726              1.577              1.170
 Vibration    12          0.730              1.568              1.150
 Vibration    13          0.760              1.485              0.988
 Vibration    14          0.784              1.424              0.888
 Vibration    15          0.832              1.305              0.723
 Vibration    16          0.860              1.240              0.646
 Vibration    17          0.912              1.126              0.531

                           ! Non-Optimized Parameters !
 Normal termination of Gaussian 16 at Wed May 17 21:37:09 2023.
