 Gaussian 16, Revision A.03,
 Gaussian 16:  ES64L-G16RevA.03 25-Dec-2016

 -----------------------------
 # opt freq b3lyp/6-31g(2df,p)
 -----------------------------

 -------------------
 Title Card Required
 -------------------
 Symbolic Z-matrix:
 Charge =  0 Multiplicity = 1

 SCF Done:  E(RB3LYP) =  -1373.78262861     A.U. after   24 cycles
 SCF Done:  E(RB3LYP) =  -1373.84476529     A.U. after   16 cycles
 SCF Done:  E(RB3LYP) =  -1373.90354253     A.U. after   16 cycles
 SCF Done:  E(RB3LYP) =  -1373.93991674     A.U. after   15 cycles
 SCF Done:  E(RB3LYP) =  -1373.96765121     A.U. after   16 cycles
 SCF Done:  E(RB3LYP) =  -1373.98047505     A.U. after   15 cycles
 SCF Done:  E(RB3LYP) =  -1373.98808859     A.U. after   15 cycles
 SCF Done:  E(RB3LYP) =  -1373.99423909     A.U. after   14 cycles
 SCF Done:  E(RB3LYP) =  -1373.99668654     A.U. after   14 cycles
 SCF Done:  E(RB3LYP) =  -1374.00026567     A.U. after   14 cycles
 SCF Done:  E(RB3LYP) =  -1374.00727234     A.U. after   14 cycles
 SCF Done:  E(RB3LYP) =  -1374.00792611     A.U. after   13 cycles
 SCF Done:  E(RB3LYP) =  -1374.00826356     A.U. after   12 cycles
 SCF Done:  E(RB3LYP) =  -1374.00833017     A.U. after   12 cycles
 SCF Done:  E(RB3LYP) =  -1374.00836423     A.U. after   10 cycles
 SCF Done:  E(RB3LYP) =  -1374.00837526     A.U. after   10 cycles
 SCF Done:  E(RB3LYP) =  -1374.00837883     A.U. after   10 cycles
 SCF Done:  E(RB3LYP) =  -1374.00838038     A.U. after    8 cycles
 SCF Done:  E(RB3LYP) =  -1374.00838084     A.U. after    8 cycles
 Optimization completed.
    -- Stationary point found.
 Normal termination of Gaussian 16 at Wed May 17 13:40:53 2023.

 ----------------------------------------------------------------------
 #N Geom=AllCheck Guess=TCheck SCRF=Check GenChk RB3LYP/6-31G(2df,p) Fr
 eq
 ----------------------------------------------------------------------

 Structure from the checkpoint file:  "OdCC1dS2CSCdCCdC2CdCCdCCdC1.chk"
 -------------------
 Title Card Required
 -------------------
 Charge =  0 Multiplicity = 1

                         Standard orientation:
 ---------------------------------------------------------------------
 Center     Atomic      Atomic             Coordinates (Angstroms)
 Number     Number       Type             X           Y           Z
 ---------------------------------------------------------------------
      1          8           0        2.879918    1.725356   -1.643394
      2          6           0        1.713066    1.418284   -1.443048
      3          6           0        1.141878    1.040256   -0.171957
      4         16           0       -0.442857    0.449375   -0.418082
      5          6           0       -1.472907    0.921397    1.052576
      6         16           0       -3.163583    1.312078    0.569588
      7          6           0       -3.719475   -0.095635   -0.293362
      8          6           0       -3.188445   -1.293372   -0.624678
      9          6           0       -1.900707   -1.925634   -0.411608
     10          6           0       -0.652581   -1.446557   -0.239889
     11          6           0        0.527623   -2.152660    0.210827
     12          6           0        1.771415   -1.984242   -0.323257
     13          6           0        2.845622   -1.713543    0.604495
     14          6           0        3.453075   -0.524888    0.354855
     15          6           0        3.083987    0.521071    1.336420
     16          6           0        1.900500    1.131910    1.099690
     17          1           0        0.981798    1.409682   -2.284687
     18          1           0       -1.051752    1.840201    1.462653
     19          1           0       -1.426338    0.121042    1.789001
     20          1           0       -4.747340    0.090551   -0.593904
     21          1           0       -3.897139   -1.949779   -1.126198
     22          1           0       -1.957140   -3.013691   -0.427048
     23          1           0        0.468874   -2.523124    1.235510
     24          1           0        1.890277   -1.640867   -1.346422
     25          1           0        2.660162   -2.001084    1.638567
     26          1           0        3.594401   -0.185693   -0.668437
     27          1           0        3.612455    0.681221    2.272043
     28          1           0        1.517135    1.807126    1.865597
 ---------------------------------------------------------------------

 SCF Done:  E(RB3LYP) =  -1374.00838084     A.U. after    1 cycles

 The electronic state is 1-A.
 Alpha  occ. eigenvalues --  -88.96551 -88.91890 -19.08760 -10.27037 -10.24034
 Alpha  occ. eigenvalues --  -10.23476 -10.23354 -10.21456 -10.21415 -10.21306
 Alpha  occ. eigenvalues --  -10.20397 -10.19810 -10.19481 -10.19431 -10.19327
 Alpha  occ. eigenvalues --  -10.19172  -8.01971  -7.98111  -5.98320  -5.98207
 Alpha  occ. eigenvalues --   -5.97765  -5.94596  -5.94184  -5.93721  -0.99519
 Alpha  occ. eigenvalues --   -0.88679  -0.84755  -0.82808  -0.81910  -0.79183
 Alpha  occ. eigenvalues --   -0.74559  -0.73035  -0.68365  -0.67259  -0.61869
 Alpha  occ. eigenvalues --   -0.59686  -0.56879  -0.56697  -0.53891  -0.51288
 Alpha  occ. eigenvalues --   -0.49704  -0.49346  -0.47876  -0.46450  -0.45959
 Alpha  occ. eigenvalues --   -0.45142  -0.44208  -0.42684  -0.41072  -0.40179
 Alpha  occ. eigenvalues --   -0.39076  -0.38768  -0.37489  -0.36651  -0.36176
 Alpha  occ. eigenvalues --   -0.35604  -0.34751  -0.32848  -0.30333  -0.29042
 Alpha  occ. eigenvalues --   -0.26316  -0.23373  -0.22015  -0.20341  -0.20002
 Alpha virt. eigenvalues --   -0.06766  -0.03762  -0.01754  -0.00637   0.00340
 Alpha virt. eigenvalues --    0.02199   0.02613   0.05243   0.05797   0.06505
 Alpha virt. eigenvalues --    0.07793   0.09283   0.10500   0.10918   0.11607

 Mulliken charges:
               1
     1  O   -0.339875
     2  C    0.067580
     3  C   -0.000478
     4  S    0.149920
     5  C   -0.263949
     6  S   -0.045930
     7  C   -0.133346
     8  C   -0.074479
     9  C   -0.165975
    10  C    0.105751
    11  C   -0.196524
    12  C   -0.088692
    13  C   -0.071597
    14  C   -0.148069
    15  C   -0.090616
    16  C   -0.151171
    17  H    0.058264
    18  H    0.180035
    19  H    0.175193
    20  H    0.137301
    21  H    0.110853
    22  H    0.118218
    23  H    0.100069
    24  H    0.123597
    25  H    0.096982
    26  H    0.153002
    27  H    0.106331
    28  H    0.087605
 Sum of Mulliken charges =  -0.00000

 Dipole moment (field-independent basis, Debye):
    X=             -4.5529    Y=             -2.4150    Z=              3.0470  Tot=              5.9871
 Quadrupole moment (field-independent basis, Debye-Ang):
   XX=           -111.6877   YY=           -109.9183   ZZ=           -105.9663
   XY=             -4.3030   XZ=              9.5836   YZ=              5.9627

  Exact polarizability: 280.239   7.172 172.217   9.624   6.557 130.511
 Approx polarizability: 509.779  31.700 337.284   7.981  16.685 230.045

                      1                      2                      3
                      A                      A                      A
 Frequencies --     47.3850                69.5972               100.5832
 Red. masses --      6.7096                 4.9684                 8.9648
 Frc consts  --      0.0089                 0.0142                 0.0534
 IR Inten    --      0.8882                 0.2692                 3.7966

                      4                      5                      6
                      A                      A                      A
 Frequencies --    120.1592               150.2012               175.0437
 Red. masses --      5.4906                 3.6447                 5.7911
 Frc consts  --      0.0467                 0.0484                 0.1045
 IR Inten    --      0.6699                 0.6713                 8.8787

                      7                      8                      9
                      A                      A                      A
 Frequencies --    210.3023               225.3125               238.1616
 Red. masses --      4.2221                 3.6447                 5.0610
 Frc consts  --      0.1100                 0.1090                 0.1691
 IR Inten    --      1.2525                 1.6713                 0.3225

                     10                     11                     12
                      A                      A                      A
 Frequencies --    242.8356               289.7501               299.3846
 Red. masses --      5.7320                 4.6456                 2.9095
 Frc consts  --      0.1992                 0.2298                 0.1536
 IR Inten    --      0.2223                 3.0169                 6.4991

                     13                     14                     15
                      A                      A                      A
 Frequencies --    313.3365               329.6109               367.7923
 Red. masses --      2.4420                 3.4279                 4.5108
 Frc consts  --      0.1413                 0.2194                 0.3595
 IR Inten    --     17.1062                 4.0684                17.8596

                     16                     17                     18
                      A                      A                      A
 Frequencies --    392.9068               401.1871               409.5754
 Red. masses --      4.7388                 3.9449                 4.0918
 Frc consts  --      0.4310                 0.3741                 0.4044
 IR Inten    --      5.6646                 0.9545                 4.0889

                     19                     20                     21
                      A                      A                      A
 Frequencies --    454.5960               496.0524               531.8537
 Red. masses --      5.3175                 4.8907                 3.6926
 Frc consts  --      0.6474                 0.7091                 0.6154
 IR Inten    --      6.4730                 5.0309                 3.2482

                     22                     23                     24
                      A                      A                      A
 Frequencies --    540.6461               580.7989               608.1607
 Red. masses --      4.7846                 3.8245                 4.8628
 Frc consts  --      0.8240                 0.7601                 1.0597
 IR Inten    --     77.1511                 5.3955                 1.6363

                     25                     26                     27
                      A                      A                      A
 Frequencies --    628.8056               651.7942               668.5815
 Red. masses --      2.8252                 6.7645                 4.3333
 Frc consts  --      0.6582                 1.6932                 1.1412
 IR Inten    --      4.6715                 1.4267                11.1992

                     28                     29                     30
                      A                      A                      A
 Frequencies --    720.3051               723.6072               745.7310
 Red. masses --      2.0430                 1.5408                 4.3677
 Frc consts  --      0.6245                 0.4753                 1.4311
 IR Inten    --     21.2842                64.2102                 3.3052

                     31                     32                     33
                      A                      A                      A
 Frequencies --    784.7786               805.2877               826.9997
 Red. masses --      2.1426                 2.3209                 2.3076
 Frc consts  --      0.7775                 0.8868                 0.9299
 IR Inten    --     12.9594                37.3467               113.4796

                     34                     35                     36
                      A                      A                      A
 Frequencies --    857.0202               864.6814               912.2651
 Red. masses --      1.8763                 2.3165                 1.6906
 Frc consts  --      0.8120                 1.0204                 0.8289
 IR Inten    --     10.9551                52.6982                 5.1930

                     37                     38                     39
                      A                      A                      A
 Frequencies --    941.6179               959.7065               971.6403
 Red. masses --      1.3806                 1.3983                 1.2600
 Frc consts  --      0.7212                 0.7588                 0.7009
 IR Inten    --      6.8149                24.5141                13.1644

                     40                     41                     42
                      A                      A                      A
 Frequencies --    996.8709              1009.8321              1026.7886
 Red. masses --      2.1905                 1.6515                 5.5275
 Frc consts  --      1.2825                 0.9923                 3.4335
 IR Inten    --      0.1796                 2.4687                50.1085

                     43                     44                     45
                      A                      A                      A
 Frequencies --   1058.4351              1079.2836              1113.3184
 Red. masses --      2.9137                 1.2995                 1.3753
 Frc consts  --      1.9232                 0.8918                 1.0043
 IR Inten    --     15.5527               123.5211                14.2863

                     46                     47                     48
                      A                      A                      A
 Frequencies --   1129.7084              1155.0294              1178.4227
 Red. masses --      1.8986                 2.4309                 1.3112
 Frc consts  --      1.4276                 1.9108                 1.0728
 IR Inten    --      6.7065                 4.3729                 9.0829

                     49                     50                     51
                      A                      A                      A
 Frequencies --   1202.2958              1229.2295              1294.5585
 Red. masses --      1.1622                 1.1823                 1.2475
 Frc consts  --      0.9898                 1.0526                 1.2318
 IR Inten    --      4.9933                14.0052                11.5916

                     52                     53                     54
                      A                      A                      A
 Frequencies --   1300.7764              1304.7301              1309.1470
 Red. masses --      1.2935                 1.4889                 2.1335
 Frc consts  --      1.2895                 1.4934                 2.1544
 IR Inten    --      5.7151                17.8626                55.3354

                     55                     56                     57
                      A                      A                      A
 Frequencies --   1329.7372              1342.4627              1382.1328
 Red. masses --      1.2584                 1.4172                 1.6303
 Frc consts  --      1.3110                 1.5048                 1.8349
 IR Inten    --      5.7592                 4.4552                11.1286

                     58                     59                     60
                      A                      A                      A
 Frequencies --   1407.4068              1430.7866              1437.7770
 Red. masses --      1.3137                 1.0973                 1.2176
 Frc consts  --      1.5331                 1.3235                 1.4830
 IR Inten    --      5.2025                 3.2969                 1.1030

                     61                     62                     63
                      A                      A                      A
 Frequencies --   1552.3970              1565.8707              1577.9119
 Red. masses --      5.3962                 3.9791                 6.6566
 Frc consts  --      7.6621                 5.7483                 9.7650
 IR Inten    --     27.7541                61.6741                 9.9190

                     64                     65                     66
                      A                      A                      A
 Frequencies --   1619.2458              1656.2159              1718.6526
 Red. masses --      7.5816                 6.5739                 8.7638
 Frc consts  --     11.7121                10.6244                15.2517
 IR Inten    --     23.4134                12.3111               353.4534

                     67                     68                     69
                      A                      A                      A
 Frequencies --   2845.5237              3090.9432              3098.8043
 Red. masses --      1.0793                 1.0549                 1.0842
 Frc consts  --      5.1490                 5.9381                 6.1343
 IR Inten    --     71.3051                 0.4886                 7.9209

                     70                     71                     72
                      A                      A                      A
 Frequencies --   3104.0356              3123.2392              3126.8571
 Red. masses --      1.0845                 1.0837                 1.0885
 Frc consts  --      6.1564                 6.2281                 6.2703
 IR Inten    --     19.9187                 9.3585                22.0432

                     73                     74                     75
                      A                      A                      A
 Frequencies --   3139.6163              3153.5524              3165.4018
 Red. masses --      1.0852                 1.0880                 1.1114
 Frc consts  --      6.3024                 6.3749                 6.5609
 IR Inten    --      9.7269                 5.0169                 0.5710

                     76                     77                     78
                      A                      A                      A
 Frequencies --   3166.4681              3167.3913              3179.0065
 Red. masses --      1.0917                 1.0906                 1.0893
 Frc consts  --      6.4491                 6.4462                 6.4862
 IR Inten    --     29.7903                 3.5091                 5.0604

 - Thermochemistry -
 -------------------
 Temperature   298.150 Kelvin.  Pressure   1.00000 Atm.
 Atom     1 has atomic number  8 and mass  15.99491

 Molecular mass:   248.03296 amu.
 Principal axes and moments of inertia in atomic units:
                           1         2         3
     Eigenvalues --  2209.878675620.689636564.20018
           X            0.99992   0.00722   0.01042
           Y           -0.00737   0.99986   0.01490
           Z           -0.01031  -0.01497   0.99983
 This molecule is an asymmetric top.
 Rotational symmetry number  1.
 Warning -- assumption of classical behavior for rotation
           may cause significant error
 Rotational temperatures (Kelvin)      0.03919     0.01541     0.01319
 Rotational constants (GHZ):           0.81667     0.32109     0.27494
 Zero-point vibrational energy     552841.7 (Joules/Mol)
                                  132.13234 (Kcal/Mol)
 Warning -- explicit consideration of  24 degrees of freedom as
           vibrations may cause significant error
 Vibrational temperatures:     68.18   100.13   144.72   172.88   216.11
          (Kelvin)            251.85   302.58   324.17   342.66   349.39
                              416.89   430.75   450.82   474.24   529.17
                              565.31   577.22   589.29   654.06   713.71
                              765.22   777.87   835.64   875.01   904.71
                              937.79   961.94  1036.36  1041.11  1072.94
                             1129.12  1158.63  1189.87  1233.06  1244.08
                             1312.55  1354.78  1380.80  1397.97  1434.27
                             1452.92  1477.32  1522.85  1552.85  1601.82
                             1625.40  1661.83  1695.49  1729.84  1768.59
                             1862.58  1871.53  1877.22  1883.57  1913.20
                             1931.50  1988.58  2024.94  2058.58  2068.64
                             2233.55  2252.94  2270.26  2329.73  2382.93
                             2472.76  4094.07  4447.18  4458.49  4466.01
                             4493.64  4498.85  4517.21  4537.26  4554.31
                             4555.84  4557.17  4573.88

 Zero-point correction=                           0.210566 (Hartree/Particle)
 Thermal correction to Energy=                    0.225529
 Thermal correction to Enthalpy=                  0.226473
 Thermal correction to Gibbs Free Energy=         0.169118
 Sum of electronic and zero-point Energies=          -1373.797815
 Sum of electronic and thermal Energies=             -1373.782852
 Sum of electronic and thermal Enthalpies=           -1373.781908
 Sum of electronic and thermal Free Energies=        -1373.839263

                     E (Thermal)             CV                S
                      KCal/Mol        Cal/Mol-Kelvin    Cal/Mol-Kelvin
 Total                  141.521             58.906            120.713
 Electronic               0.000              0.000              0.000
 Translational            0.889              2.981             42.426
 Rotational               0.889              2.981             32.766
 Vibrational            139.744             52.945             45.521
 Vibration     1          0.595              1.979              4.924
 Vibration     2          0.598              1.969              4.165
 Vibration     3          0.604              1.949              3.443
 Vibration     4          0.609              1.932              3.098
 Vibration     5          0.618              1.902              2.670
 Vibration     6          0.627              1.873              2.381
 Vibration     7          0.642              1.825              2.041
 Vibration     8          0.650              1.802              1.916
 Vibration     9          0.656              1.782              1.817
 Vibration    10          0.659              1.775              1.782
 Vibration    11          0.686              1.693              1.475
 Vibration    12          0.692              1.675              1.420
 Vibration    13          0.701              1.648              1.345
 Vibration    14          0.712              1.616              1.262
 Vibration    15          0.740              1.538              1.089
 Vibration    16          0.760              1.485              0.989
 Vibration    17          0.767              1.468              0.958
 Vibration    18          0.774              1.449              0.928
 Vibration    19          0.813              1.351              0.782
 Vibration    20          0.852              1.259              0.668
 Vibration    21          0.887              1.180              0.583
 Vibration    22          0.896              1.160              0.564
 Vibration    23          0.937              1.073              0.484
 Vibration    24          0.967              1.015              0.436

 Optimization completed.
    -- Stationary point found.
 Normal termination of Gaussian 16 at Wed May 17 16:12:12 2023.
