 Gaussian 16, Revision A.03,
 Gaussian 16:  ES64L-G16RevA.03 25-Dec-2016

 -----------------------------
 # opt freq b3lyp/6-31g(2df,p)
 -----------------------------

 -------------------
 Title Card Required
 -------------------
 Symbolic Z-matrix:
 Charge =  0 Multiplicity = 1

 SCF Done:  E(RB3LYP) =  -628.220729381     A.U. after   15 cycles
 SCF Done:  E(RB3LYP) =  -628.283703751     A.U. after   15 cycles
 SCF Done:  E(RB3LYP) =  -628.350128916     A.U. after   15 cycles
 SCF Done:  E(RB3LYP) =  -628.378605834     A.U. after   16 cycles
 SCF Done:  E(RB3LYP) =  -628.383439790     A.U. after   14 cycles
 SCF Done:  E(RB3LYP) =  -628.391290325     A.U. after   15 cycles
 SCF Done:  E(RB3LYP) =  -628.396982666     A.U. after   15 cycles
 SCF Done:  E(RB3LYP) =  -628.400222054     A.U. after   15 cycles
 SCF Done:  E(RB3LYP) =  -628.401043981     A.U. after   14 cycles
 SCF Done:  E(RB3LYP) =  -628.401556799     A.U. after   13 cycles
 SCF Done:  E(RB3LYP) =  -628.401783869     A.U. after   13 cycles
 SCF Done:  E(RB3LYP) =  -628.401964265     A.U. after   12 cycles
 SCF Done:  E(RB3LYP) =  -628.402051964     A.U. after   13 cycles
 SCF Done:  E(RB3LYP) =  -628.402089796     A.U. after   12 cycles
 SCF Done:  E(RB3LYP) =  -628.402092765     A.U. after    9 cycles
 SCF Done:  E(RB3LYP) =  -628.402093272     A.U. after    9 cycles
 SCF Done:  E(RB3LYP) =  -628.402093439     A.U. after    7 cycles
 Optimization completed.
    -- Stationary point found.
 Normal termination of Gaussian 16 at Thu May 18 12:01:19 2023.

 ----------------------------------------------------------------------
 #N Geom=AllCheck Guess=TCheck SCRF=Check GenChk RB3LYP/6-31G(2df,p) Fr
 eq
 ----------------------------------------------------------------------

 Structure from the checkpoint file:  "OdCC1dCdCdCqC2dCCdNOC2rCdC1.chk"
 -------------------
 Title Card Required
 -------------------
 Charge =  0 Multiplicity = 1

                         Standard orientation:
 ---------------------------------------------------------------------
 Center     Atomic      Atomic             Coordinates (Angstroms)
 Number     Number       Type             X           Y           Z
 ---------------------------------------------------------------------
      1          8           0       -5.105377    0.580343   -0.041786
      2          6           0       -4.371323   -0.379780   -0.094798
      3          6           0       -2.901481   -0.294181   -0.042003
      4          6           0       -1.993301   -1.348562   -0.093752
      5          6           0       -0.755800   -1.265899   -0.045538
      6          6           0        0.039434   -0.127682    0.061837
      7          6           0        1.487763   -0.091220    0.122900
      8          6           0        2.252735   -1.201688    0.122588
      9          6           0        3.690674   -1.056202    0.123459
     10          7           0        4.310930    0.030281   -0.191995
     11          8           0        3.507757    1.129340   -0.452140
     12          6           0        2.263579    1.197834    0.257394
     13          6           0       -0.813862    1.016144    0.123174
     14          6           0       -2.204581    0.935780    0.073019
     15          1           0       -4.766861   -1.412824   -0.188471
     16          1           0        1.817748   -2.194035    0.070089
     17          1           0        4.339731   -1.908572    0.296909
     18          1           0        1.754399    2.052458   -0.191270
     19          1           0        2.460559    1.426966    1.317850
     20          1           0       -0.362350    1.998277    0.217897
     21          1           0       -2.801795    1.841038    0.122697
 ---------------------------------------------------------------------

 SCF Done:  E(RB3LYP) =  -628.402093439     A.U. after    1 cycles

 The electronic state is 1-A.
 Alpha  occ. eigenvalues --  -19.19816 -19.14702 -14.39480 -10.28032 -10.26105
 Alpha  occ. eigenvalues --  -10.25693 -10.23871 -10.23635 -10.23174 -10.22498
 Alpha  occ. eigenvalues --  -10.22308 -10.22004 -10.21815 -10.21601  -1.10473
 Alpha  occ. eigenvalues --   -1.05281  -0.90091  -0.88120  -0.84870  -0.78452
 Alpha  occ. eigenvalues --   -0.76682  -0.70364  -0.69684  -0.64405  -0.61183
 Alpha  occ. eigenvalues --   -0.58184  -0.54728  -0.53876  -0.52479  -0.50752
 Alpha  occ. eigenvalues --   -0.48677  -0.47324  -0.45895  -0.43794  -0.42895
 Alpha  occ. eigenvalues --   -0.42579  -0.41334  -0.40617  -0.39704  -0.38964
 Alpha  occ. eigenvalues --   -0.35939  -0.33782  -0.29969  -0.29626  -0.28546
 Alpha  occ. eigenvalues --   -0.27503  -0.26233  -0.23618
 Alpha virt. eigenvalues --   -0.10645  -0.09550  -0.04596  -0.00637   0.02602
 Alpha virt. eigenvalues --    0.06377   0.07941   0.08496   0.12473   0.12840
 Alpha virt. eigenvalues --    0.13671   0.13852   0.15711   0.16894   0.17985

 Mulliken charges:
               1
     1  O   -0.263452
     2  C    0.096408
     3  C    0.091433
     4  C   -0.082790
     5  C   -0.048657
     6  C    0.147998
     7  C    0.219109
     8  C   -0.215191
     9  C    0.011159
    10  N   -0.070667
    11  O   -0.243876
    12  C   -0.180465
    13  C   -0.181933
    14  C   -0.133553
    15  H    0.085103
    16  H    0.120818
    17  H    0.133183
    18  H    0.135521
    19  H    0.119897
    20  H    0.117439
    21  H    0.142515
 Sum of Mulliken charges =  -0.00000

 Dipole moment (field-independent basis, Debye):
    X=              0.4853    Y=             -1.2708    Z=              1.1030  Tot=              1.7513
 Quadrupole moment (field-independent basis, Debye-Ang):
   XX=           -105.7818   YY=            -72.2560   ZZ=            -79.2978
   XY=             -1.1216   XZ=              4.3383   YZ=              1.0079

  Exact polarizability: 265.034  -9.124 121.419   2.448   1.492  56.988
 Approx polarizability: 466.077 -24.575 235.049  -0.076  -0.720  96.585

                      1                      2                      3
                      A                      A                      A
 Frequencies --     48.8884                57.5559               102.4258
 Red. masses --      8.0648                 4.4153                 6.7832
 Frc consts  --      0.0114                 0.0086                 0.0419
 IR Inten    --      2.5882                 0.9815                 4.2433

                      4                      5                      6
                      A                      A                      A
 Frequencies --    112.4160               172.5140               201.4240
 Red. masses --      5.8325                 3.3255                 6.8928
 Frc consts  --      0.0434                 0.0583                 0.1648
 IR Inten    --      1.2192                14.7336                 2.2656

                      7                      8                      9
                      A                      A                      A
 Frequencies --    232.5731               270.7914               294.8164
 Red. masses --      3.1778                 6.6309                 4.0276
 Frc consts  --      0.1013                 0.2865                 0.2063
 IR Inten    --      0.3399                 0.5293                 3.2314

                     10                     11                     12
                      A                      A                      A
 Frequencies --    352.3010               433.5290               441.6299
 Red. masses --      9.2962                 4.8214                 5.8193
 Frc consts  --      0.6798                 0.5339                 0.6687
 IR Inten    --     75.9578                10.3529                44.5082

                     13                     14                     15
                      A                      A                      A
 Frequencies --    449.8607               507.0177               546.5106
 Red. masses --      6.4879                 9.2268                 5.2663
 Frc consts  --      0.7736                 1.3975                 0.9267
 IR Inten    --      3.2312                10.8909                12.9880

                     16                     17                     18
                      A                      A                      A
 Frequencies --    580.0917               600.7571               635.2557
 Red. masses --      3.8765                 3.3986                 4.9439
 Frc consts  --      0.7686                 0.7227                 1.1755
 IR Inten    --      5.1510                 1.5949                 0.9989

                     19                     20                     21
                      A                      A                      A
 Frequencies --    661.8295               744.6502               828.2418
 Red. masses --      4.7833                 5.9647                 6.2215
 Frc consts  --      1.2344                 1.9487                 2.5145
 IR Inten    --      1.2043                59.5927                41.9145

                     22                     23                     24
                      A                      A                      A
 Frequencies --    839.1678               852.6266               885.3940
 Red. masses --      1.3472                 2.2838                 2.1336
 Frc consts  --      0.5590                 0.9782                 0.9855
 IR Inten    --     48.8826                66.8403                10.2989

                     25                     26                     27
                      A                      A                      A
 Frequencies --    904.8747               939.6058               944.5552
 Red. masses --      3.6505                 1.5087                 2.4997
 Frc consts  --      1.7611                 0.7848                 1.3140
 IR Inten    --     19.3102                 8.2304                 7.4601

                     28                     29                     30
                      A                      A                      A
 Frequencies --    952.5324               997.6791              1026.3517
 Red. masses --      1.6034                 5.5325                 2.9831
 Frc consts  --      0.8571                 3.2445                 1.8515
 IR Inten    --      1.8736                20.3600                 4.0794

                     31                     32                     33
                      A                      A                      A
 Frequencies --   1038.1629              1057.2059              1100.5728
 Red. masses --      1.7992                 2.0750                 2.8063
 Frc consts  --      1.1425                 1.3664                 2.0028
 IR Inten    --      0.0017                10.5742                 7.0340

                     34                     35                     36
                      A                      A                      A
 Frequencies --   1127.1983              1212.1953              1255.8887
 Red. masses --      1.6367                 2.7432                 2.2304
 Frc consts  --      1.2253                 2.3749                 2.0727
 IR Inten    --      8.2699                21.3715               128.3340

                     37                     38                     39
                      A                      A                      A
 Frequencies --   1278.0685              1298.8436              1314.6635
 Red. masses --      1.1679                 2.6999                 1.5134
 Frc consts  --      1.1240                 2.6835                 1.5411
 IR Inten    --      7.9201                52.0313                31.6800

                     40                     41                     42
                      A                      A                      A
 Frequencies --   1357.1230              1390.4628              1404.0294
 Red. masses --      1.8993                 1.9265                 1.5295
 Frc consts  --      2.0610                 2.1945                 1.7764
 IR Inten    --     32.6218                 7.4388                 1.6283

                     43                     44                     45
                      A                      A                      A
 Frequencies --   1447.2247              1475.4835              1483.2243
 Red. masses --      2.2147                 2.9498                 1.3085
 Frc consts  --      2.7329                 3.7837                 1.6960
 IR Inten    --      0.9233                19.4484                17.8838

                     46                     47                     48
                      A                      A                      A
 Frequencies --   1495.2360              1586.3481              1672.8109
 Red. masses --      2.9076                 8.1941                 6.4405
 Frc consts  --      3.8301                12.1492                10.6186
 IR Inten    --     39.0563                 5.9627                 0.5831

                     49                     50                     51
                      A                      A                      A
 Frequencies --   1785.8030              2035.4922              2915.9386
 Red. masses --     10.0857                11.8690                 1.0846
 Frc consts  --     18.9507                28.9737                 5.4333
 IR Inten    --    350.8883                28.7266               139.5734

                     52                     53                     54
                      A                      A                      A
 Frequencies --   2965.7219              3112.8280              3181.4615
 Red. masses --      1.0714                 1.0907                 1.0851
 Frc consts  --      5.5520                 6.2267                 6.4708
 IR Inten    --     47.2979                 9.0263                 1.8657

                     55                     56                     57
                      A                      A                      A
 Frequencies --   3182.3107              3194.2885              3197.2647
 Red. masses --      1.0882                 1.0935                 1.0925
 Frc consts  --      6.4931                 6.5738                 6.5800
 IR Inten    --     15.1293                 5.5132                 1.2030

 - Thermochemistry -
 -------------------
 Temperature   298.150 Kelvin.  Pressure   1.00000 Atm.
 Atom     1 has atomic number  8 and mass  15.99491

 Molecular mass:   185.04768 amu.
 Principal axes and moments of inertia in atomic units:
                           1         2         3
     Eigenvalues --   616.543806097.894756659.88180
           X            0.99999  -0.00280   0.00280
           Y            0.00277   0.99994   0.01069
           Z           -0.00283  -0.01069   0.99994
 This molecule is an asymmetric top.
 Rotational symmetry number  1.
 Warning -- assumption of classical behavior for rotation
           may cause significant error
 Rotational temperatures (Kelvin)      0.14048     0.01420     0.01301
 Rotational constants (GHZ):           2.92719     0.29596     0.27099
 Zero-point vibrational energy     395866.5 (Joules/Mol)
                                   94.61438 (Kcal/Mol)
 Warning -- explicit consideration of  17 degrees of freedom as
           vibrations may cause significant error
 Vibrational temperatures:     70.34    82.81   147.37   161.74   248.21
          (Kelvin)            289.80   334.62   389.61   424.18   506.88
                              623.75   635.41   647.25   729.49   786.31
                              834.62   864.36   913.99   952.23  1071.39
                             1191.66  1207.38  1226.74  1273.88  1301.91
                             1351.88  1359.00  1370.48  1435.44  1476.69
                             1493.68  1521.08  1583.48  1621.79  1744.08
                             1806.94  1838.86  1868.75  1891.51  1952.60
                             2000.57  2020.09  2082.23  2122.89  2134.03
                             2151.31  2282.40  2406.80  2569.37  2928.62
                             4195.39  4267.01  4478.67  4577.41  4578.64
                             4595.87  4600.15

 Zero-point correction=                           0.150778 (Hartree/Particle)
 Thermal correction to Energy=                    0.162292
 Thermal correction to Enthalpy=                  0.163237
 Thermal correction to Gibbs Free Energy=         0.112275
 Sum of electronic and zero-point Energies=           -628.251316
 Sum of electronic and thermal Energies=              -628.239801
 Sum of electronic and thermal Enthalpies=            -628.238857
 Sum of electronic and thermal Free Energies=         -628.289819

                     E (Thermal)             CV                S
                      KCal/Mol        Cal/Mol-Kelvin    Cal/Mol-Kelvin
 Total                  101.840             43.153            107.258
 Electronic               0.000              0.000              0.000
 Translational            0.889              2.981             41.553
 Rotational               0.889              2.981             31.593
 Vibrational            100.063             37.191             34.112
 Vibration     1          0.595              1.978              4.862
 Vibration     2          0.596              1.974              4.539
 Vibration     3          0.604              1.947              3.408
 Vibration     4          0.607              1.939              3.227
 Vibration     5          0.626              1.876              2.408
 Vibration     6          0.638              1.838              2.120
 Vibration     7          0.653              1.791              1.859
 Vibration     8          0.674              1.727              1.591
 Vibration     9          0.689              1.683              1.446
 Vibration    10          0.729              1.571              1.156
 Vibration    11          0.794              1.397              0.847
 Vibration    12          0.801              1.379              0.821
 Vibration    13          0.809              1.361              0.796
 Vibration    14          0.862              1.234              0.641
 Vibration    15          0.902              1.147              0.551
 Vibration    16          0.937              1.074              0.485
 Vibration    17          0.959              1.030              0.448

 Optimization completed.
    -- Stationary point found.
 Normal termination of Gaussian 16 at Thu May 18 13:00:41 2023.
