 Gaussian 16, Revision A.03,
 Gaussian 16:  ES64L-G16RevA.03 25-Dec-2016

 -----------------------------
 # opt freq b3lyp/6-31g(2df,p)
 -----------------------------

 -------------------
 Title Card Required
 -------------------
 Symbolic Z-matrix:
 Charge =  0 Multiplicity = 1

 SCF Done:  E(RB3LYP) =  -1257.40269464     A.U. after   18 cycles
 SCF Done:  E(RB3LYP) =  -1257.42750497     A.U. after   15 cycles
 SCF Done:  E(RB3LYP) =  -1257.43369866     A.U. after   15 cycles
 SCF Done:  E(RB3LYP) =  -1257.43408575     A.U. after   15 cycles
 SCF Done:  E(RB3LYP) =  -1257.43622676     A.U. after   15 cycles
 SCF Done:  E(RB3LYP) =  -1257.43742003     A.U. after   14 cycles
 SCF Done:  E(RB3LYP) =  -1257.44002429     A.U. after   14 cycles
 SCF Done:  E(RB3LYP) =  -1257.44066670     A.U. after   14 cycles
 SCF Done:  E(RB3LYP) =  -1257.44082193     A.U. after   12 cycles
 SCF Done:  E(RB3LYP) =  -1257.44086652     A.U. after   12 cycles
 SCF Done:  E(RB3LYP) =  -1257.44088662     A.U. after   12 cycles
 SCF Done:  E(RB3LYP) =  -1257.44088872     A.U. after   11 cycles
 SCF Done:  E(RB3LYP) =  -1257.44088899     A.U. after    8 cycles
 SCF Done:  E(RB3LYP) =  -1257.44088905     A.U. after    7 cycles
 Optimization completed.
    -- Stationary point found.
 Normal termination of Gaussian 16 at Wed May 17 02:33:54 2023.

 ----------------------------------------------------------------------
 #N Geom=AllCheck Guess=TCheck SCRF=Check GenChk RB3LYP/6-31G(2df,p) Fr
 eq
 ----------------------------------------------------------------------

 Structure from the checkpoint file:  "OdCC1dCCdCCdCC1dCCdSdS.chk"
 -------------------
 Title Card Required
 -------------------
 Charge =  0 Multiplicity = 1

                         Standard orientation:
 ---------------------------------------------------------------------
 Center     Atomic      Atomic             Coordinates (Angstroms)
 Number     Number       Type             X           Y           Z
 ---------------------------------------------------------------------
      1          8           0        0.639938    2.998974    0.604684
      2          6           0        0.532764    1.815288    0.823035
      3          6           0        1.374821    0.754092    0.175758
      4          6           0        2.498171    1.214895   -0.445972
      5          6           0        3.614542    0.499868   -0.975566
      6          6           0        3.968231   -0.780132   -0.676836
      7          6           0        3.266458   -1.712994    0.152939
      8          6           0        1.979446   -1.656868    0.590900
      9          6           0        0.973155   -0.646377    0.356547
     10          6           0       -0.351114   -1.047236    0.403047
     11          6           0       -1.475451   -0.299564    0.009610
     12         16           0       -3.023425   -0.927288    0.125824
     13         16           0       -4.382591    0.303195   -0.596642
     14          1           0       -0.186710    1.433222    1.573727
     15          1           0        2.547583    2.300450   -0.514204
     16          1           0        4.299262    1.077476   -1.589688
     17          1           0        4.914073   -1.135080   -1.077976
     18          1           0        3.816596   -2.615880    0.402820
     19          1           0        1.624612   -2.527546    1.140036
     20          1           0       -0.538111   -2.075038    0.708734
     21          1           0       -1.386692    0.690264   -0.428591
 ---------------------------------------------------------------------

 SCF Done:  E(RB3LYP) =  -1257.44088905     A.U. after    1 cycles

 The electronic state is 1-A.
 Alpha  occ. eigenvalues --  -88.94149 -88.83995 -19.15184 -10.28455 -10.24239
 Alpha  occ. eigenvalues --  -10.24215 -10.23752 -10.23587 -10.23417 -10.23346
 Alpha  occ. eigenvalues --  -10.22892 -10.22875 -10.22056  -7.99951  -7.90599
 Alpha  occ. eigenvalues --   -5.96253  -5.95986  -5.95876  -5.87190  -5.86470
 Alpha  occ. eigenvalues --   -5.86174  -1.05876  -0.89031  -0.85581  -0.82382
 Alpha  occ. eigenvalues --   -0.81565  -0.75954  -0.70794  -0.69426  -0.63225
 Alpha  occ. eigenvalues --   -0.61812  -0.58385  -0.55940  -0.54007  -0.53316
 Alpha  occ. eigenvalues --   -0.48952  -0.48372  -0.45944  -0.45621  -0.44128
 Alpha  occ. eigenvalues --   -0.42315  -0.41142  -0.40079  -0.39683  -0.38518
 Alpha  occ. eigenvalues --   -0.37693  -0.36710  -0.33404  -0.32714  -0.31166
 Alpha  occ. eigenvalues --   -0.27266  -0.26058  -0.22074  -0.19449
 Alpha virt. eigenvalues --   -0.11271  -0.10982  -0.02909  -0.00526   0.00770
 Alpha virt. eigenvalues --    0.05468   0.06843   0.07630   0.09002   0.09498
 Alpha virt. eigenvalues --    0.11741   0.13617   0.14779   0.15833   0.17057

 Mulliken charges:
               1
     1  O   -0.262108
     2  C    0.095589
     3  C    0.015421
     4  C   -0.083915
     5  C   -0.110201
     6  C   -0.080725
     7  C   -0.096272
     8  C   -0.102712
     9  C    0.131211
    10  C   -0.148396
    11  C   -0.136917
    12  S    0.124452
    13  S   -0.344773
    14  H    0.109789
    15  H    0.143489
    16  H    0.118533
    17  H    0.120039
    18  H    0.114575
    19  H    0.121295
    20  H    0.108836
    21  H    0.162790
 Sum of Mulliken charges =  -0.00000

 Dipole moment (field-independent basis, Debye):
    X=              7.8119    Y=             -3.4482    Z=              0.5069  Tot=              8.5541
 Quadrupole moment (field-independent basis, Debye-Ang):
   XX=            -95.8900   YY=            -92.0200   ZZ=            -88.5726
   XY=             -2.4320   XZ=             -6.3213   YZ=             -3.8302

  Exact polarizability: 410.926 -19.308 149.082  -3.397 -13.827  86.640
 Approx polarizability:1025.578 -65.158 279.771  10.831 -36.356 157.781

                      1                      2                      3
                      A                      A                      A
 Frequencies --     41.7987                59.1019                78.7165
 Red. masses --      6.8770                10.5031                 7.7645
 Frc consts  --      0.0071                 0.0216                 0.0283
 IR Inten    --      0.6700                 1.3313                 2.1815

                      4                      5                      6
                      A                      A                      A
 Frequencies --    104.6993               142.3097               178.9178
 Red. masses --      6.4481                 7.5724                 3.6439
 Frc consts  --      0.0416                 0.0904                 0.0687
 IR Inten    --      1.0556                 0.8959                 1.3387

                      7                      8                      9
                      A                      A                      A
 Frequencies --    230.0709               238.3436               262.0553
 Red. masses --      7.1545                 5.0300                 3.9674
 Frc consts  --      0.2231                 0.1684                 0.1605
 IR Inten    --      2.5794                 1.2137                 5.4599

                     10                     11                     12
                      A                      A                      A
 Frequencies --    301.0464               331.8185               367.7193
 Red. masses --      3.0205                 5.4741                 3.0167
 Frc consts  --      0.1613                 0.3551                 0.2403
 IR Inten    --      3.3630                 3.4920                 3.1048

                     13                     14                     15
                      A                      A                      A
 Frequencies --    408.9879               442.2667               490.4593
 Red. masses --      3.8190                 5.8500                 5.4114
 Frc consts  --      0.3764                 0.6742                 0.7670
 IR Inten    --      1.9981                 1.8718                 4.1933

                     16                     17                     18
                      A                      A                      A
 Frequencies --    543.6050               597.0321               615.0232
 Red. masses --      5.4021                 3.1525                16.9060
 Frc consts  --      0.9405                 0.6621                 3.7677
 IR Inten    --     22.6201                22.6932               143.7403

                     19                     20                     21
                      A                      A                      A
 Frequencies --    645.0617               761.1108               768.0152
 Red. masses --      2.5908                 2.8030                 2.0214
 Frc consts  --      0.6352                 0.9567                 0.7025
 IR Inten    --     17.6912                34.6653                12.3003

                     22                     23                     24
                      A                      A                      A
 Frequencies --    780.5182               843.5087               866.3583
 Red. masses --      5.2571                 1.4718                 1.6590
 Frc consts  --      1.8870                 0.6170                 0.7336
 IR Inten    --     13.5111                 8.3237                 4.6939

                     25                     26                     27
                      A                      A                      A
 Frequencies --    902.2564               931.8568               942.3107
 Red. masses --      3.8741                 4.2517                 1.2466
 Frc consts  --      1.8582                 2.1753                 0.6522
 IR Inten    --      5.2067                 9.4874                21.0520

                     28                     29                     30
                      A                      A                      A
 Frequencies --    966.8875               980.2859              1009.3145
 Red. masses --      3.0916                 1.4207                 1.3663
 Frc consts  --      1.7029                 0.8044                 0.8201
 IR Inten    --      3.1241                25.7432                 1.9457

                     31                     32                     33
                      A                      A                      A
 Frequencies --   1019.5759              1039.6628              1053.2385
 Red. masses --      1.3538                 2.0594                 2.1618
 Frc consts  --      0.8292                 1.3115                 1.4129
 IR Inten    --      0.0683                11.6863                 6.6129

                     34                     35                     36
                      A                      A                      A
 Frequencies --   1122.7475              1183.6593              1250.2096
 Red. masses --      3.1144                 1.6530                 1.8416
 Frc consts  --      2.3131                 1.3645                 1.6960
 IR Inten    --     36.5809                10.4835                22.7259

                     37                     38                     39
                      A                      A                      A
 Frequencies --   1260.0916              1272.8779              1311.4168
 Red. masses --      1.3083                 1.1469                 1.7802
 Frc consts  --      1.2240                 1.0949                 1.8038
 IR Inten    --      9.0787                19.8971                 1.6587

                     40                     41                     42
                      A                      A                      A
 Frequencies --   1338.1662              1416.1165              1431.4117
 Red. masses --      1.5093                 1.3592                 1.5666
 Frc consts  --      1.5924                 1.6060                 1.8912
 IR Inten    --      9.8908                 5.4110                13.0892

                     43                     44                     45
                      A                      A                      A
 Frequencies --   1457.2069              1496.7796              1543.2668
 Red. masses --      1.6891                 1.8790                 4.1285
 Frc consts  --      2.1132                 2.4803                 5.7932
 IR Inten    --      3.8328                 8.0725               239.9560

                     46                     47                     48
                      A                      A                      A
 Frequencies --   1557.6360              1616.7484              1660.8593
 Red. masses --      7.0148                 6.7785                 4.5764
 Frc consts  --     10.0276                10.4393                 7.4377
 IR Inten    --    221.9812               184.5217                 6.0589

                     49                     50                     51
                      A                      A                      A
 Frequencies --   1785.4116              2938.3425              3137.0783
 Red. masses --      9.9532                 1.0840                 1.0855
 Frc consts  --     18.6935                 5.5144                 6.2942
 IR Inten    --    196.3609                36.4729                 0.4730

                     52                     53                     54
                      A                      A                      A
 Frequencies --   3143.4056              3149.2345              3157.9778
 Red. masses --      1.0862                 1.0847                 1.0857
 Frc consts  --      6.3234                 6.3384                 6.3793
 IR Inten    --      8.7557                 0.2976                 4.7276

                     55                     56                     57
                      A                      A                      A
 Frequencies --   3172.4886              3175.6943              3182.5094
 Red. masses --      1.0899                 1.0888                 1.0939
 Frc consts  --      6.4631                 6.4695                 6.5281
 IR Inten    --     11.3953                 1.5917                22.3682

 - Thermochemistry -
 -------------------
 Temperature   298.150 Kelvin.  Pressure   1.00000 Atm.
 Atom     1 has atomic number  8 and mass  15.99491

 Molecular mass:   208.00166 amu.
 Principal axes and moments of inertia in atomic units:
                           1         2         3
     Eigenvalues --  1521.489886084.463527163.24627
           X            0.99995  -0.00745  -0.00621
           Y            0.00735   0.99983  -0.01662
           Z            0.00634   0.01658   0.99984
 This molecule is an asymmetric top.
 Rotational symmetry number  1.
 Warning -- assumption of classical behavior for rotation
           may cause significant error
 Rotational temperatures (Kelvin)      0.05693     0.01424     0.01209
 Rotational constants (GHZ):           1.18617     0.29661     0.25194
 Zero-point vibrational energy     398986.1 (Joules/Mol)
                                   95.35997 (Kcal/Mol)
 Warning -- explicit consideration of  18 degrees of freedom as
           vibrations may cause significant error
 Vibrational temperatures:     60.14    85.03   113.26   150.64   204.75
          (Kelvin)            257.42   331.02   342.92   377.04   433.14
                              477.41   529.07   588.44   636.32   705.66
                              782.13   859.00   884.88   928.10  1095.07
                             1105.00  1122.99  1213.62  1246.50  1298.15
                             1340.73  1355.77  1391.14  1410.41  1452.18
                             1466.94  1495.84  1515.38  1615.38  1703.02
                             1798.77  1812.99  1831.39  1886.84  1925.32
                             2037.48  2059.48  2096.60  2153.53  2220.42
                             2241.09  2326.14  2389.61  2568.81  4227.62
                             4513.56  4522.66  4531.05  4543.63  4564.50
                             4569.12  4578.92

 Zero-point correction=                           0.151966 (Hartree/Particle)
 Thermal correction to Energy=                    0.164187
 Thermal correction to Enthalpy=                  0.165132
 Thermal correction to Gibbs Free Energy=         0.111843
 Sum of electronic and zero-point Energies=          -1257.288923
 Sum of electronic and thermal Energies=             -1257.276702
 Sum of electronic and thermal Enthalpies=           -1257.275757
 Sum of electronic and thermal Free Energies=        -1257.329046

                     E (Thermal)             CV                S
                      KCal/Mol        Cal/Mol-Kelvin    Cal/Mol-Kelvin
 Total                  103.029             44.663            112.156
 Electronic               0.000              0.000              0.000
 Translational            0.889              2.981             41.901
 Rotational               0.889              2.981             32.561
 Vibrational            101.252             38.701             37.694
 Vibration     1          0.594              1.980              5.172
 Vibration     2          0.596              1.974              4.487
 Vibration     3          0.600              1.963              3.923
 Vibration     4          0.605              1.945              3.365
 Vibration     5          0.616              1.911              2.773
 Vibration     6          0.629              1.868              2.340
 Vibration     7          0.652              1.795              1.878
 Vibration     8          0.656              1.782              1.815
 Vibration     9          0.669              1.742              1.648
 Vibration    10          0.693              1.672              1.411
 Vibration    11          0.714              1.612              1.251
 Vibration    12          0.740              1.539              1.089
 Vibration    13          0.773              1.451              0.930
 Vibration    14          0.802              1.378              0.820
 Vibration    15          0.846              1.271              0.682
 Vibration    16          0.899              1.154              0.558
 Vibration    17          0.955              1.038              0.455
 Vibration    18          0.975              1.000              0.425

 Optimization completed.
    -- Stationary point found.
 Normal termination of Gaussian 16 at Wed May 17 03:33:04 2023.
