 Gaussian 16, Revision A.03,
 Gaussian 16:  ES64L-G16RevA.03 25-Dec-2016

 -----------------------------
 # opt freq b3lyp/6-31g(2df,p)
 -----------------------------

 -------------------
 Title Card Required
 -------------------
 Symbolic Z-matrix:
 Charge =  0 Multiplicity = 1

 SCF Done:  E(RB3LYP) =  -1005.29294079     A.U. after   24 cycles
 SCF Done:  E(RB3LYP) =  -1005.36592671     A.U. after   16 cycles
 SCF Done:  E(RB3LYP) =  -1005.42177860     A.U. after   16 cycles
 SCF Done:  E(RB3LYP) =  -1005.46764459     A.U. after   16 cycles
 SCF Done:  E(RB3LYP) =  -1005.52086767     A.U. after   16 cycles
 SCF Done:  E(RB3LYP) =  -1005.54264239     A.U. after   15 cycles
 SCF Done:  E(RB3LYP) =  -1005.56539422     A.U. after   15 cycles
 SCF Done:  E(RB3LYP) =  -1005.57914881     A.U. after   14 cycles
 SCF Done:  E(RB3LYP) =  -1005.58942572     A.U. after   15 cycles
 SCF Done:  E(RB3LYP) =  -1005.59470611     A.U. after   15 cycles
 SCF Done:  E(RB3LYP) =  -1005.60827550     A.U. after   17 cycles
 SCF Done:  E(RB3LYP) =  -1005.61049435     A.U. after   15 cycles
 SCF Done:  E(RB3LYP) =  -1005.61109365     A.U. after   15 cycles
 SCF Done:  E(RB3LYP) =  -1005.61157908     A.U. after   14 cycles
 SCF Done:  E(RB3LYP) =  -1005.61182488     A.U. after   13 cycles
 SCF Done:  E(RB3LYP) =  -1005.61184820     A.U. after   12 cycles
 SCF Done:  E(RB3LYP) =  -1005.61186484     A.U. after   10 cycles
 SCF Done:  E(RB3LYP) =  -1005.61186588     A.U. after    9 cycles
 SCF Done:  E(RB3LYP) =  -1005.61186613     A.U. after    8 cycles
 Optimization completed.
    -- Stationary point found.
 Normal termination of Gaussian 16 at Thu May 18 02:15:28 2023.

 ----------------------------------------------------------------------
 #N Geom=AllCheck Guess=TCheck SCRF=Check GenChk RB3LYP/6-31G(2df,p) Fr
 eq
 ----------------------------------------------------------------------

 Structure from the checkpoint file:  "OdCc1sc2ccc3ccnc-3cnc1-2.chk"
 -------------------
 Title Card Required
 -------------------
 Charge =  0 Multiplicity = 1

                         Standard orientation:
 ---------------------------------------------------------------------
 Center     Atomic      Atomic             Coordinates (Angstroms)
 Number     Number       Type             X           Y           Z
 ---------------------------------------------------------------------
      1          8           0        4.658103    1.016593    0.000096
      2          6           0        3.482923    1.329642    0.000682
      3          6           0        2.407001    0.366831    0.000163
      4         16           0        2.540897   -1.427973   -0.000323
      5          6           0        0.806029   -1.064523   -0.000218
      6          6           0       -0.206818   -1.956481    0.000226
      7          6           0       -1.616085   -1.738562    0.000273
      8          6           0       -2.403236   -0.620262    0.000125
      9          6           0       -3.841944   -0.717456    0.000043
     10          6           0       -4.320989    0.559410    0.000234
     11          7           0       -3.305816    1.498698    0.000052
     12          6           0       -2.151244    0.845835   -0.000312
     13          6           0       -0.991002    1.701611   -0.000451
     14          7           0        0.293389    1.539843   -0.000298
     15          6           0        1.032033    0.417438   -0.000099
     16          1           0        3.149787    2.385439    0.001441
     17          1           0        0.088002   -3.002878    0.000478
     18          1           0       -2.182376   -2.668313    0.000322
     19          1           0       -4.401542   -1.641874    0.000199
     20          1           0       -5.351462    0.888463    0.000470
     21          1           0       -1.314606    2.743289   -0.000775
 ---------------------------------------------------------------------

 SCF Done:  E(RB3LYP) =  -1005.61186613     A.U. after    1 cycles

 The electronic state is 1-A.
 Alpha  occ. eigenvalues --  -88.91861 -19.13842 -14.35225 -14.33978 -10.27347
 Alpha  occ. eigenvalues --  -10.27107 -10.26387 -10.25237 -10.25229 -10.24369
 Alpha  occ. eigenvalues --  -10.23867 -10.23489 -10.23330 -10.22511 -10.20578
 Alpha  occ. eigenvalues --   -7.98020  -5.94414  -5.94162  -5.93671  -1.04197
 Alpha  occ. eigenvalues --   -0.97540  -0.95692  -0.89903  -0.84735  -0.79410
 Alpha  occ. eigenvalues --   -0.76109  -0.73595  -0.69712  -0.67648  -0.63493
 Alpha  occ. eigenvalues --   -0.60162  -0.57947  -0.56568  -0.53151  -0.51835
 Alpha  occ. eigenvalues --   -0.48841  -0.47251  -0.45309  -0.44716  -0.44110
 Alpha  occ. eigenvalues --   -0.42253  -0.42088  -0.41267  -0.40926  -0.38709
 Alpha  occ. eigenvalues --   -0.37757  -0.37526  -0.36252  -0.32684  -0.28645
 Alpha  occ. eigenvalues --   -0.27820  -0.27742  -0.25388  -0.25294  -0.22245
 Alpha virt. eigenvalues --   -0.13323  -0.10473  -0.02022  -0.00335   0.02023
 Alpha virt. eigenvalues --    0.05004   0.05634   0.08307   0.08452   0.11940
 Alpha virt. eigenvalues --    0.12853   0.13413   0.14001   0.15050   0.15809

 Mulliken charges:
               1
     1  O   -0.272374
     2  C    0.052469
     3  C    0.086327
     4  S   -0.060557
     5  C    0.236659
     6  C   -0.258950
     7  C   -0.130632
     8  C    0.163091
     9  C   -0.191453
    10  C   -0.047697
    11  N   -0.281881
    12  C    0.200404
    13  C   -0.038424
    14  N   -0.383401
    15  C    0.177213
    16  H    0.110558
    17  H    0.131254
    18  H    0.125501
    19  H    0.118027
    20  H    0.123490
    21  H    0.140376
 Sum of Mulliken charges =  -0.00000

 Dipole moment (field-independent basis, Debye):
    X=             -4.4119    Y=             -3.4497    Z=              0.0012  Tot=              5.6005
 Quadrupole moment (field-independent basis, Debye-Ang):
   XX=           -104.5808   YY=            -85.5717   ZZ=            -91.9975
   XY=              5.8016   XZ=              0.0023   YZ=              0.0004

  Exact polarizability: 348.380  -7.163 161.876  -0.004   0.001  61.026
 Approx polarizability: 824.572 -57.207 320.552  -0.020   0.002 106.967

                      1                      2                      3
                      A                      A                      A
 Frequencies --     49.7260                83.0176               107.6241
 Red. masses --      7.5816                 7.4121                 8.7826
 Frc consts  --      0.0110                 0.0301                 0.0599
 IR Inten    --      0.1677                 0.8704                 4.9299

                      4                      5                      6
                      A                      A                      A
 Frequencies --    128.1878               206.6505               249.2782
 Red. masses --      5.7946                 4.0934                 5.5646
 Frc consts  --      0.0561                 0.1030                 0.2037
 IR Inten    --      3.4151                 2.9165                 1.0103

                      7                      8                      9
                      A                      A                      A
 Frequencies --    249.4192               252.2158               300.5926
 Red. masses --     11.2986                10.2079                 3.6299
 Frc consts  --      0.4141                 0.3826                 0.1932
 IR Inten    --      0.2861                 6.5504                 7.0571

                     10                     11                     12
                      A                      A                      A
 Frequencies --    308.1553               360.0034               435.6629
 Red. masses --      7.1163                 3.6838                 3.2547
 Frc consts  --      0.3981                 0.2813                 0.3640
 IR Inten    --      3.4190                 1.6952                 0.0088

                     13                     14                     15
                      A                      A                      A
 Frequencies --    448.4741               489.4859               521.5835
 Red. masses --     10.0923                 4.3588                 8.4477
 Frc consts  --      1.1960                 0.6153                 1.3541
 IR Inten    --      2.9657                 3.7609                 7.6507

                     16                     17                     18
                      A                      A                      A
 Frequencies --    555.9168               591.3548               634.2538
 Red. masses --      7.5082                 3.6956                 6.2140
 Frc consts  --      1.3671                 0.7614                 1.4728
 IR Inten    --      0.4309                 5.1009                74.3638

                     19                     20                     21
                      A                      A                      A
 Frequencies --    638.6489               704.1902               719.1667
 Red. masses --      7.9147                 6.1415                 5.0852
 Frc consts  --      1.9020                 1.7943                 1.5496
 IR Inten    --     23.9983                13.2078                 8.9151

                     22                     23                     24
                      A                      A                      A
 Frequencies --    747.5483               767.3027               798.4954
 Red. masses --      5.9725                 2.7383                 1.7987
 Frc consts  --      1.9665                 0.9499                 0.6757
 IR Inten    --     45.8651                 4.6528                 5.3921

                     25                     26                     27
                      A                      A                      A
 Frequencies --    858.1010               880.4272               881.6264
 Red. masses --      7.4053                 7.4025                 1.3329
 Frc consts  --      3.2127                 3.3808                 0.6104
 IR Inten    --      9.6958                 8.1489                27.2976

                     28                     29                     30
                      A                      A                      A
 Frequencies --    913.7925               924.8861               982.4565
 Red. masses --      7.4225                 1.3938                 1.4789
 Frc consts  --      3.6517                 0.7025                 0.8410
 IR Inten    --     10.9732                 0.7841                 2.2510

                     31                     32                     33
                      A                      A                      A
 Frequencies --    988.8240              1015.5551              1074.0982
 Red. masses --      1.4628                 1.7226                 4.3184
 Frc consts  --      0.8427                 1.0468                 2.9354
 IR Inten    --      2.0880                 0.6387                24.9310

                     34                     35                     36
                      A                      A                      A
 Frequencies --   1097.0470              1132.5172              1145.6963
 Red. masses --      1.7801                 2.6777                 2.3597
 Frc consts  --      1.2623                 2.0235                 1.8250
 IR Inten    --     10.0180                 6.1620                 5.9262

                     37                     38                     39
                      A                      A                      A
 Frequencies --   1198.0110              1282.3526              1329.8525
 Red. masses --      3.9601                 3.8083                 2.1863
 Frc consts  --      3.3487                 3.6898                 2.2780
 IR Inten    --      1.8043                65.1385                74.6302

                     40                     41                     42
                      A                      A                      A
 Frequencies --   1349.3353              1383.4054              1395.2345
 Red. masses --      3.7834                 1.4022                 1.4508
 Frc consts  --      4.0586                 1.5811                 1.6641
 IR Inten    --    120.7342                14.0501                55.7305

                     43                     44                     45
                      A                      A                      A
 Frequencies --   1402.2517              1437.0288              1477.5977
 Red. masses --      1.9881                 2.0027                 1.7602
 Frc consts  --      2.3033                 2.4367                 2.2642
 IR Inten    --      5.4041                86.3371                67.0255

                     46                     47                     48
                      A                      A                      A
 Frequencies --   1536.6249              1602.7147              1619.8434
 Red. masses --      4.7579                 8.9209                 8.9318
 Frc consts  --      6.6191                13.5011                13.8081
 IR Inten    --      7.7623                18.7091               194.7569

                     49                     50                     51
                      A                      A                      A
 Frequencies --   1629.1532              1675.9627              1741.0359
 Red. masses --     11.8705                 6.2678                 9.9524
 Frc consts  --     18.5628                10.3727                17.7744
 IR Inten    --    259.4471                 2.3168               433.4731

                     52                     53                     54
                      A                      A                      A
 Frequencies --   2948.4792              3123.8346              3139.8716
 Red. masses --      1.0837                 1.0863                 1.0849
 Frc consts  --      5.5508                 6.2454                 6.3021
 IR Inten    --     57.4318                 7.3493                 8.0852

                     55                     56                     57
                      A                      A                      A
 Frequencies --   3161.3598              3222.7919              3245.2826
 Red. masses --      1.0889                 1.0882                 1.1044
 Frc consts  --      6.4122                 6.6592                 6.8530
 IR Inten    --      4.7304                 5.9498                14.2328

 - Thermochemistry -
 -------------------
 Temperature   298.150 Kelvin.  Pressure   1.00000 Atm.
 Atom     1 has atomic number  8 and mass  15.99491

 Molecular mass:   214.02008 amu.
 Principal axes and moments of inertia in atomic units:
                           1         2         3
     Eigenvalues --  1278.285275633.843976912.12909
           X            0.99995   0.00971   0.00000
           Y           -0.00971   0.99995  -0.00000
           Z           -0.00000   0.00000   1.00000
 This molecule is an asymmetric top.
 Rotational symmetry number  1.
 Warning -- assumption of classical behavior for rotation
           may cause significant error
 Rotational temperatures (Kelvin)      0.06776     0.01537     0.01253
 Rotational constants (GHZ):           1.41185     0.32034     0.26110
 Zero-point vibrational energy     377685.0 (Joules/Mol)
                                   90.26889 (Kcal/Mol)
 Warning -- explicit consideration of  17 degrees of freedom as
           vibrations may cause significant error
 Vibrational temperatures:     71.54   119.44   154.85   184.43   297.32
          (Kelvin)            358.66   358.86   362.88   432.49   443.37
                              517.96   626.82   645.25   704.26   750.44
                              799.84   850.83   912.55   918.87  1013.17
                             1034.72  1075.56  1103.98  1148.86  1234.62
                             1266.74  1268.46  1314.74  1330.70  1413.54
                             1422.70  1461.16  1545.39  1578.41  1629.44
                             1648.40  1723.67  1845.02  1913.36  1941.39
                             1990.41  2007.43  2017.53  2067.56  2125.93
                             2210.86  2305.95  2330.59  2343.99  2411.34
                             2504.96  4242.20  4494.50  4517.57  4548.49
                             4636.88  4669.24

 Zero-point correction=                           0.143853 (Hartree/Particle)
 Thermal correction to Energy=                    0.155560
 Thermal correction to Enthalpy=                  0.156504
 Thermal correction to Gibbs Free Energy=         0.105263
 Sum of electronic and zero-point Energies=          -1005.468014
 Sum of electronic and thermal Energies=             -1005.456307
 Sum of electronic and thermal Enthalpies=           -1005.455362
 Sum of electronic and thermal Free Energies=        -1005.506604

                     E (Thermal)             CV                S
                      KCal/Mol        Cal/Mol-Kelvin    Cal/Mol-Kelvin
 Total                   97.615             45.004            107.846
 Electronic               0.000              0.000              0.000
 Translational            0.889              2.981             41.986
 Rotational               0.889              2.981             32.276
 Vibrational             95.838             39.042             33.584
 Vibration     1          0.595              1.978              4.828
 Vibration     2          0.600              1.961              3.818
 Vibration     3          0.606              1.943              3.311
 Vibration     4          0.611              1.925              2.973
 Vibration     5          0.641              1.830              2.073
 Vibration     6          0.662              1.764              1.736
 Vibration     7          0.662              1.764              1.735
 Vibration     8          0.664              1.759              1.715
 Vibration     9          0.693              1.673              1.414
 Vibration    10          0.698              1.658              1.372
 Vibration    11          0.735              1.555              1.122
 Vibration    12          0.796              1.392              0.840
 Vibration    13          0.807              1.364              0.800
 Vibration    14          0.845              1.273              0.685
 Vibration    15          0.877              1.202              0.606
 Vibration    16          0.911              1.127              0.532
 Vibration    17          0.949              1.050              0.465

                           ! Non-Optimized Parameters !
 Normal termination of Gaussian 16 at Thu May 18 03:33:38 2023.
