 Gaussian 16, Revision A.03,
 Gaussian 16:  ES64L-G16RevA.03 25-Dec-2016

 -----------------------------
 # opt freq b3lyp/6-31g(2df,p)
 -----------------------------

 -------------------
 Title Card Required
 -------------------
 Symbolic Z-matrix:
 Charge =  0 Multiplicity = 1

 SCF Done:  E(RB3LYP) =  -607.641909106     A.U. after   17 cycles
 SCF Done:  E(RB3LYP) =  -607.649138728     A.U. after   14 cycles
 SCF Done:  E(RB3LYP) =  -607.647423325     A.U. after   14 cycles
 SCF Done:  E(RB3LYP) =  -607.651433996     A.U. after   14 cycles
 SCF Done:  E(RB3LYP) =  -607.648430778     A.U. after   14 cycles
 SCF Done:  E(RB3LYP) =  -607.652507551     A.U. after   13 cycles
 SCF Done:  E(RB3LYP) =  -607.652705425     A.U. after   13 cycles
 SCF Done:  E(RB3LYP) =  -607.652804580     A.U. after   13 cycles
 SCF Done:  E(RB3LYP) =  -607.652849415     A.U. after   11 cycles
 SCF Done:  E(RB3LYP) =  -607.652951023     A.U. after   12 cycles
 SCF Done:  E(RB3LYP) =  -607.596336418     A.U. after   16 cycles
 SCF Done:  E(RB3LYP) =  -607.654086525     A.U. after   14 cycles
 SCF Done:  E(RB3LYP) =  -607.654358161     A.U. after   14 cycles
 SCF Done:  E(RB3LYP) =  -607.654669908     A.U. after   12 cycles
 SCF Done:  E(RB3LYP) =  -607.654754437     A.U. after   12 cycles
 SCF Done:  E(RB3LYP) =  -607.654779621     A.U. after   11 cycles
 SCF Done:  E(RB3LYP) =  -607.654783558     A.U. after   11 cycles
 SCF Done:  E(RB3LYP) =  -607.654785567     A.U. after    9 cycles
 SCF Done:  E(RB3LYP) =  -607.654786248     A.U. after    8 cycles
 Optimization completed.
    -- Stationary point found.
 Normal termination of Gaussian 16 at Mon May 15 20:24:05 2023.

 ----------------------------------------------------------------------
 #N Geom=AllCheck Guess=TCheck SCRF=Check GenChk RB3LYP/6-31G(2df,p) Fr
 eq
 ----------------------------------------------------------------------

 Structure from the checkpoint file:  "OdCCdCC1dCCqCdOrdCNNdC1.chk"
 -------------------
 Title Card Required
 -------------------
 Charge =  0 Multiplicity = 1

                         Standard orientation:
 ---------------------------------------------------------------------
 Center     Atomic      Atomic             Coordinates (Angstroms)
 Number     Number       Type             X           Y           Z
 ---------------------------------------------------------------------
      1          8           0       -4.980750    1.077979   -0.335785
      2          6           0       -4.163735    0.236367   -0.030231
      3          6           0       -2.716289    0.395369   -0.149789
      4          6           0       -1.878357   -0.589557    0.236721
      5          6           0       -0.428602   -0.592388    0.209475
      6          6           0        0.311117    0.551463    0.177678
      7          6           0        1.736251    0.681587    0.057682
      8          6           0        2.352115    2.007336    0.214129
      9          8           0        3.538630    2.243600    0.117109
     10          6           0        2.565929   -0.319865   -0.387866
     11          7           0        2.243094   -1.601588   -0.643699
     12          7           0        1.351073   -2.386114    0.145308
     13          6           0        0.213799   -1.905983    0.449160
     14          1           0       -4.481097   -0.752960    0.375933
     15          1           0       -2.366434    1.332605   -0.572547
     16          1           0       -2.341629   -1.510075    0.595586
     17          1           0       -0.231117    1.494084    0.249553
     18          1           0        1.624158    2.821732    0.427716
     19          1           0        3.592182   -0.037520   -0.617844
     20          1           0        3.006455   -2.194279   -0.933603
     21          1           0       -0.378101   -2.598285    1.051600
 ---------------------------------------------------------------------

 SCF Done:  E(RB3LYP) =  -607.654786248     A.U. after    1 cycles

 The electronic state is 1-A.
 Alpha  occ. eigenvalues --  -19.13466 -19.12550 -14.42483 -14.39258 -10.27834
 Alpha  occ. eigenvalues --  -10.27326 -10.26289 -10.26185 -10.23796 -10.22567
 Alpha  occ. eigenvalues --  -10.22521 -10.21192 -10.19894  -1.04338  -1.03766
 Alpha  occ. eigenvalues --   -1.03118  -0.89981  -0.86404  -0.81283  -0.75456
 Alpha  occ. eigenvalues --   -0.72227  -0.65903  -0.63143  -0.60072  -0.57668
 Alpha  occ. eigenvalues --   -0.56715  -0.55597  -0.50042  -0.48041  -0.47258
 Alpha  occ. eigenvalues --   -0.46558  -0.45763  -0.44935  -0.42360  -0.41225
 Alpha  occ. eigenvalues --   -0.40560  -0.39789  -0.39165  -0.39001  -0.35897
 Alpha  occ. eigenvalues --   -0.33560  -0.31326  -0.28573  -0.26099  -0.24751
 Alpha  occ. eigenvalues --   -0.21204
 Alpha virt. eigenvalues --   -0.11004  -0.05923  -0.03179   0.02906   0.05133
 Alpha virt. eigenvalues --    0.06591   0.08280   0.08981   0.10006   0.12558
 Alpha virt. eigenvalues --    0.13368   0.14434   0.16659   0.17560   0.18133

 Mulliken charges:
               1
     1  O   -0.287782
     2  C    0.151216
     3  C   -0.208259
     4  C   -0.074729
     5  C    0.152439
     6  C   -0.203777
     7  C    0.078269
     8  C    0.104061
     9  O   -0.299850
    10  C    0.031967
    11  N   -0.265635
    12  N   -0.228852
    13  C    0.010246
    14  H    0.060395
    15  H    0.105321
    16  H    0.100315
    17  H    0.120528
    18  H    0.074396
    19  H    0.162473
    20  H    0.278679
    21  H    0.138579
 Sum of Mulliken charges =  -0.00000

 Dipole moment (field-independent basis, Debye):
    X=              2.5990    Y=             -3.5097    Z=              0.0697  Tot=              4.3678
 Quadrupole moment (field-independent basis, Debye-Ang):
   XX=            -98.8018   YY=            -76.5823   ZZ=            -73.2301
   XY=             -1.7919   XZ=             -7.6152   YZ=              1.3230

  Exact polarizability: 231.007  -4.003 133.474  -6.364  -1.846  57.733
 Approx polarizability: 380.593 -19.883 238.723 -10.582   0.597  99.301

                      1                      2                      3
                      A                      A                      A
 Frequencies --     53.7834                73.1202                96.0521
 Red. masses --      5.3023                 7.5600                 4.5241
 Frc consts  --      0.0090                 0.0238                 0.0246
 IR Inten    --      4.2888                 4.6696                 4.0390

                      4                      5                      6
                      A                      A                      A
 Frequencies --    117.1826               150.1804               203.4008
 Red. masses --      2.5878                 3.7112                 5.4977
 Frc consts  --      0.0209                 0.0493                 0.1340
 IR Inten    --      3.0900                 0.5079                 2.7290

                      7                      8                      9
                      A                      A                      A
 Frequencies --    219.3906               270.1659               282.0349
 Red. masses --      4.0172                 3.8439                 4.0043
 Frc consts  --      0.1139                 0.1653                 0.1877
 IR Inten    --      5.1546                 9.9503                25.7014

                     10                     11                     12
                      A                      A                      A
 Frequencies --    299.3879               326.7209               386.6759
 Red. masses --      4.2074                 4.5558                 4.4613
 Frc consts  --      0.2222                 0.2865                 0.3930
 IR Inten    --      8.7258                11.6600                 1.9294

                     13                     14                     15
                      A                      A                      A
 Frequencies --    399.4836               468.1124               499.6930
 Red. masses --      4.5286                 2.7852                 4.7776
 Frc consts  --      0.4258                 0.3596                 0.7029
 IR Inten    --      3.3157                70.1638                 5.6061

                     16                     17                     18
                      A                      A                      A
 Frequencies --    554.6538               592.9295               631.0718
 Red. masses --      5.4113                 3.8017                 3.6046
 Frc consts  --      0.9808                 0.7875                 0.8458
 IR Inten    --      4.9986                27.3379                13.1918

                     19                     20                     21
                      A                      A                      A
 Frequencies --    677.3108               763.8020               819.7833
 Red. masses --      1.6805                 5.9313                 5.1246
 Frc consts  --      0.4542                 2.0387                 2.0291
 IR Inten    --     91.3812                54.8556                53.7214

                     22                     23                     24
                      A                      A                      A
 Frequencies --    856.7865               887.2113               932.5844
 Red. masses --      1.7025                 3.3451                 4.5234
 Frc consts  --      0.7364                 1.5513                 2.3179
 IR Inten    --      6.6544                16.7895                10.4162

                     25                     26                     27
                      A                      A                      A
 Frequencies --    946.0874               969.6198               989.8738
 Red. masses --      1.6398                 1.3652                 1.4514
 Frc consts  --      0.8648                 0.7562                 0.8379
 IR Inten    --     23.8439                 6.1407                43.9186

                     28                     29                     30
                      A                      A                      A
 Frequencies --   1007.0722              1021.8480              1039.9258
 Red. masses --      1.3518                 2.7348                 1.5802
 Frc consts  --      0.8078                 1.6825                 1.0069
 IR Inten    --     18.3548                58.1874                 2.3004

                     31                     32                     33
                      A                      A                      A
 Frequencies --   1042.3989              1129.5314              1157.5575
 Red. masses --      1.8339                 3.6059                 2.5742
 Frc consts  --      1.1741                 2.7105                 2.0323
 IR Inten    --     23.3752               260.2696                85.6792

                     34                     35                     36
                      A                      A                      A
 Frequencies --   1229.0410              1260.7497              1290.6164
 Red. masses --      1.8082                 1.7482                 2.1493
 Frc consts  --      1.6093                 1.6372                 2.1094
 IR Inten    --     91.1852                67.0399                39.7177

                     37                     38                     39
                      A                      A                      A
 Frequencies --   1336.2879              1364.8079              1367.7773
 Red. masses --      1.5315                 1.4791                 1.3691
 Frc consts  --      1.6113                 1.6232                 1.5090
 IR Inten    --      5.1586               102.8703                 5.9790

                     40                     41                     42
                      A                      A                      A
 Frequencies --   1406.1010              1433.6261              1445.0291
 Red. masses --      1.7413                 1.2603                 1.5098
 Frc consts  --      2.0284                 1.5261                 1.8574
 IR Inten    --     19.8795                 0.7940                 8.1495

                     43                     44                     45
                      A                      A                      A
 Frequencies --   1494.7811              1556.5029              1634.6016
 Red. masses --      1.7429                 2.5408                 5.0764
 Frc consts  --      2.2944                 3.6267                 7.9915
 IR Inten    --    240.6491               308.0883               425.1037

                     46                     47                     48
                      A                      A                      A
 Frequencies --   1670.5779              1756.2778              1779.2984
 Red. masses --      5.3486                 7.7484                 9.5890
 Frc consts  --      8.7948                14.0816                17.8864
 IR Inten    --     76.6790                69.5966               547.2789

                     49                     50                     51
                      A                      A                      A
 Frequencies --   1783.5030              2851.4498              2880.3412
 Red. masses --      9.2367                 1.0811                 1.0824
 Frc consts  --     17.3107                 5.1789                 5.2909
 IR Inten    --    123.5724               146.9561                84.5762

                     52                     53                     54
                      A                      A                      A
 Frequencies --   3111.8720              3119.2814              3132.5291
 Red. masses --      1.0863                 1.0863                 1.0866
 Frc consts  --      6.1978                 6.2277                 6.2820
 IR Inten    --      0.4478                21.9248                 6.9458

                     55                     56                     57
                      A                      A                      A
 Frequencies --   3156.7883              3178.1875              3618.6318
 Red. masses --      1.0892                 1.0899                 1.0772
 Frc consts  --      6.3954                 6.4863                 8.3104
 IR Inten    --      1.7814                 4.4959               103.1063

 - Thermochemistry -
 -------------------
 Temperature   298.150 Kelvin.  Pressure   1.00000 Atm.
 Atom     1 has atomic number  8 and mass  15.99491

 Molecular mass:   176.05858 amu.
 Principal axes and moments of inertia in atomic units:
                           1         2         3
     Eigenvalues --  1331.517894614.252925815.69873
           X            0.99998   0.00245  -0.00514
           Y           -0.00247   0.99999  -0.00308
           Z            0.00514   0.00310   0.99998
 This molecule is an asymmetric top.
 Rotational symmetry number  1.
 Warning -- assumption of classical behavior for rotation
           may cause significant error
 Rotational temperatures (Kelvin)      0.06505     0.01877     0.01489
 Rotational constants (GHZ):           1.35540     0.39112     0.31032
 Zero-point vibrational energy     411061.4 (Joules/Mol)
                                   98.24602 (Kcal/Mol)
 Warning -- explicit consideration of  17 degrees of freedom as
           vibrations may cause significant error
 Vibrational temperatures:     77.38   105.20   138.20   168.60   216.08
          (Kelvin)            292.65   315.65   388.71   405.79   430.75
                              470.08   556.34   574.77   673.51   718.95
                              798.02   853.09   907.97   974.50  1098.94
                             1179.49  1232.72  1276.50  1341.78  1361.21
                             1395.07  1424.21  1448.95  1470.21  1496.22
                             1499.78  1625.14  1665.47  1768.32  1813.94
                             1856.91  1922.62  1963.65  1967.93  2023.07
                             2062.67  2079.07  2150.66  2239.46  2351.83
                             2403.59  2526.89  2560.01  2566.06  4102.60
                             4144.17  4477.29  4487.95  4507.01  4541.91
                             4572.70  5206.40

 Zero-point correction=                           0.156565 (Hartree/Particle)
 Thermal correction to Energy=                    0.168353
 Thermal correction to Enthalpy=                  0.169297
 Thermal correction to Gibbs Free Energy=         0.117837
 Sum of electronic and zero-point Energies=           -607.498221
 Sum of electronic and thermal Energies=              -607.486433
 Sum of electronic and thermal Enthalpies=            -607.485489
 Sum of electronic and thermal Free Energies=         -607.536950

                     E (Thermal)             CV                S
                      KCal/Mol        Cal/Mol-Kelvin    Cal/Mol-Kelvin
 Total                  105.643             43.095            108.309
 Electronic               0.000              0.000              0.000
 Translational            0.889              2.981             41.404
 Rotational               0.889              2.981             31.947
 Vibrational            103.866             37.133             34.958
 Vibration     1          0.596              1.976              4.673
 Vibration     2          0.599              1.967              4.068
 Vibration     3          0.603              1.952              3.533
 Vibration     4          0.608              1.935              3.146
 Vibration     5          0.618              1.902              2.670
 Vibration     6          0.639              1.835              2.102
 Vibration     7          0.647              1.812              1.964
 Vibration     8          0.674              1.728              1.595
 Vibration     9          0.681              1.707              1.521
 Vibration    10          0.692              1.675              1.420
 Vibration    11          0.710              1.622              1.276
 Vibration    12          0.755              1.499              1.013
 Vibration    13          0.766              1.471              0.965
 Vibration    14          0.825              1.321              0.743
 Vibration    15          0.855              1.251              0.659
 Vibration    16          0.910              1.130              0.535
 Vibration    17          0.950              1.047              0.462

 Optimization completed.
    -- Stationary point found.
 Normal termination of Gaussian 16 at Mon May 15 21:16:52 2023.
