 Gaussian 16, Revision A.03,
 Gaussian 16:  ES64L-G16RevA.03 25-Dec-2016

 -----------------------------
 # opt freq b3lyp/6-31g(2df,p)
 -----------------------------

 -------------------
 Title Card Required
 -------------------
 Symbolic Z-matrix:
 Charge =  0 Multiplicity = 1

 SCF Done:  E(RB3LYP) =  -914.301820937     A.U. after   16 cycles
 SCF Done:  E(RB3LYP) =  -914.370462950     A.U. after   13 cycles
 SCF Done:  E(RB3LYP) =  -914.427530052     A.U. after   15 cycles
 SCF Done:  E(RB3LYP) =  -914.474924935     A.U. after   14 cycles
 SCF Done:  E(RB3LYP) =  -914.512836090     A.U. after   14 cycles
 SCF Done:  E(RB3LYP) =  -914.535539014     A.U. after   16 cycles
 SCF Done:  E(RB3LYP) =  -914.543261732     A.U. after   14 cycles
 SCF Done:  E(RB3LYP) =  -914.550573103     A.U. after   14 cycles
 SCF Done:  E(RB3LYP) =  -914.554682322     A.U. after   14 cycles
 SCF Done:  E(RB3LYP) =  -914.558600982     A.U. after   13 cycles
 SCF Done:  E(RB3LYP) =  -914.572651113     A.U. after   13 cycles
 SCF Done:  E(RB3LYP) =  -914.572924041     A.U. after   13 cycles
 SCF Done:  E(RB3LYP) =  -914.572899613     A.U. after   12 cycles
 SCF Done:  E(RB3LYP) =  -914.572956456     A.U. after   12 cycles
 SCF Done:  E(RB3LYP) =  -914.572920028     A.U. after   12 cycles
 SCF Done:  E(RB3LYP) =  -914.572960685     A.U. after   12 cycles
 SCF Done:  E(RB3LYP) =  -914.572959321     A.U. after   10 cycles
 SCF Done:  E(RB3LYP) =  -914.572961071     A.U. after   10 cycles
 SCF Done:  E(RB3LYP) =  -914.572961110     A.U. after    7 cycles
 Optimization completed.
    -- Stationary point found.
 Normal termination of Gaussian 16 at Fri May 19 19:30:08 2023.

 ----------------------------------------------------------------------
 #N Geom=AllCheck Guess=TCheck SCRF=Check GenChk RB3LYP/6-31G(2df,p) Fr
 eq
 ----------------------------------------------------------------------

 Structure from the checkpoint file:  "OdCC1dCC2dCqCNdCCdC1rSC2.chk"
 -------------------
 Title Card Required
 -------------------
 Charge =  0 Multiplicity = 1

                         Standard orientation:
 ---------------------------------------------------------------------
 Center     Atomic      Atomic             Coordinates (Angstroms)
 Number     Number       Type             X           Y           Z
 ---------------------------------------------------------------------
      1          8           0        4.040671    1.121714   -0.094167
      2          6           0        2.915483    1.443237    0.218633
      3          6           0        1.704425    0.632728   -0.032081
      4          6           0        0.526737    1.235946    0.287106
      5          6           0       -0.853359    0.907410    0.093539
      6          6           0       -1.606469   -0.194631   -0.187961
      7          6           0       -1.349613   -1.659937   -0.353974
      8          7           0       -0.611556   -2.185695    0.798898
      9          6           0        0.655151   -2.242474    0.732204
     10          6           0        1.536147   -1.870416   -0.405547
     11          6           0        1.965564   -0.645567   -0.714798
     12         16           0       -3.191214    0.584673   -0.206542
     13          6           0       -1.970901    1.927006    0.192539
     14          1           0        2.714623    2.415515    0.723861
     15          1           0        0.650178    2.228282    0.727398
     16          1           0       -0.835499   -1.825599   -1.309431
     17          1           0       -2.310294   -2.181830   -0.396478
     18          1           0        1.165229   -2.655333    1.609725
     19          1           0        1.910793   -2.709811   -0.991353
     20          1           0        2.701968   -0.559474   -1.511105
     21          1           0       -2.150088    2.336009    1.189602
     22          1           0       -1.970939    2.723826   -0.554440
 ---------------------------------------------------------------------

 SCF Done:  E(RB3LYP) =  -914.572961110     A.U. after    1 cycles

 The electronic state is 1-A.
 Alpha  occ. eigenvalues --  -88.90115 -19.12917 -14.33736 -10.26288 -10.24605
 Alpha  occ. eigenvalues --  -10.23905 -10.23862 -10.23070 -10.22239 -10.21460
 Alpha  occ. eigenvalues --  -10.20848 -10.20660 -10.20381  -7.96383  -5.92780
 Alpha  occ. eigenvalues --   -5.92528  -5.92002  -1.03582  -0.93664  -0.89227
 Alpha  occ. eigenvalues --   -0.83336  -0.77920  -0.75480  -0.71153  -0.67200
 Alpha  occ. eigenvalues --   -0.64232  -0.61951  -0.57630  -0.53392  -0.51629
 Alpha  occ. eigenvalues --   -0.49935  -0.49035  -0.48200  -0.46797  -0.46286
 Alpha  occ. eigenvalues --   -0.44217  -0.43337  -0.41699  -0.39314  -0.38541
 Alpha  occ. eigenvalues --   -0.37089  -0.36823  -0.33513  -0.33168  -0.31004
 Alpha  occ. eigenvalues --   -0.30370  -0.27398  -0.25917  -0.25007  -0.21382
 Alpha virt. eigenvalues --   -0.08484  -0.02500  -0.01247  -0.00504   0.02392
 Alpha virt. eigenvalues --    0.05471   0.08168   0.10326   0.10917   0.11752
 Alpha virt. eigenvalues --    0.13233   0.14072   0.15247   0.15701   0.16828

 Mulliken charges:
               1
     1  O   -0.286460
     2  C    0.116503
     3  C    0.093837
     4  C   -0.197848
     5  C    0.213673
     6  C    0.145006
     7  C   -0.300046
     8  N   -0.163767
     9  C   -0.020270
    10  C   -0.144641
    11  C   -0.134019
    12  S   -0.101716
    13  C   -0.306688
    14  H    0.063882
    15  H    0.095279
    16  H    0.130404
    17  H    0.129933
    18  H    0.122013
    19  H    0.116887
    20  H    0.126495
    21  H    0.152527
    22  H    0.149016
 Sum of Mulliken charges =  -0.00000

 Dipole moment (field-independent basis, Debye):
    X=             -2.0711    Y=              0.6323    Z=             -0.6538  Tot=              2.2621
 Quadrupole moment (field-independent basis, Debye-Ang):
   XX=            -99.5922   YY=            -73.4555   ZZ=            -81.7818
   XY=             -7.6326   XZ=              1.6045   YZ=              5.2016

  Exact polarizability: 217.600   0.598 135.220  -0.337   6.296  80.771
 Approx polarizability: 408.326  15.278 219.804  -2.995  11.915 135.344

                      1                      2                      3
                      A                      A                      A
 Frequencies --     44.2485                68.1191               133.7800
 Red. masses --      3.8834                 9.8135                 4.5307
 Frc consts  --      0.0045                 0.0268                 0.0478
 IR Inten    --      0.4240                 3.5902                 1.9280

                      4                      5                      6
                      A                      A                      A
 Frequencies --    145.7178               176.2313               183.3578
 Red. masses --      4.0262                 4.1031                 5.5252
 Frc consts  --      0.0504                 0.0751                 0.1094
 IR Inten    --      1.5853                 4.1710                 3.6564

                      7                      8                      9
                      A                      A                      A
 Frequencies --    257.4830               275.0696               302.5440
 Red. masses --      4.3098                 2.8107                 4.3756
 Frc consts  --      0.1683                 0.1253                 0.2360
 IR Inten    --      6.2659                 3.9518                 9.5123

                     10                     11                     12
                      A                      A                      A
 Frequencies --    331.1138               367.2769               400.6896
 Red. masses --      4.8449                 3.5939                 3.3390
 Frc consts  --      0.3130                 0.2856                 0.3158
 IR Inten    --      0.4748                 2.1220                 1.4957

                     13                     14                     15
                      A                      A                      A
 Frequencies --    467.0770               478.4508               550.5003
 Red. masses --      2.7779                 4.3195                 3.8191
 Frc consts  --      0.3571                 0.5826                 0.6819
 IR Inten    --      7.7441                 3.1187                 1.8078

                     16                     17                     18
                      A                      A                      A
 Frequencies --    596.3891               635.6022               671.1391
 Red. masses --      3.4375                 3.9235                 3.5096
 Frc consts  --      0.7204                 0.9339                 0.9314
 IR Inten    --      4.1594                41.9318                 4.6370

                     19                     20                     21
                      A                      A                      A
 Frequencies --    695.9922               727.0510               790.5314
 Red. masses --      4.8886                 4.4460                 3.9788
 Frc consts  --      1.3952                 1.3847                 1.4650
 IR Inten    --      8.3247                 7.1462                15.7743

                     22                     23                     24
                      A                      A                      A
 Frequencies --    800.0097               866.7422               885.7861
 Red. masses --      2.7283                 2.6489                 1.7614
 Frc consts  --      1.0288                 1.1724                 0.8142
 IR Inten    --     54.4506                 8.9538                13.7580

                     25                     26                     27
                      A                      A                      A
 Frequencies --    893.5425               914.7309               933.3806
 Red. masses --      2.3347                 2.3565                 1.4878
 Frc consts  --      1.0983                 1.1617                 0.7637
 IR Inten    --     34.7712                 6.0172                 2.7810

                     28                     29                     30
                      A                      A                      A
 Frequencies --    978.4515              1003.7248              1024.8904
 Red. masses --      2.5216                 1.4213                 2.1581
 Frc consts  --      1.4223                 0.8437                 1.3356
 IR Inten    --     16.8660                 3.3807                 5.6507

                     31                     32                     33
                      A                      A                      A
 Frequencies --   1035.1914              1057.9485              1068.0483
 Red. masses --      2.1064                 1.2167                 2.6488
 Frc consts  --      1.3300                 0.8023                 1.7803
 IR Inten    --      2.7473                 2.7977                12.1307

                     34                     35                     36
                      A                      A                      A
 Frequencies --   1109.8080              1149.1176              1191.0354
 Red. masses --      3.7810                 1.3933                 3.7673
 Frc consts  --      2.7438                 1.0840                 3.1487
 IR Inten    --     21.9709                 5.6208               251.6973

                     37                     38                     39
                      A                      A                      A
 Frequencies --   1236.5611              1252.9078              1272.2406
 Red. masses --      1.1910                 1.2567                 2.2485
 Frc consts  --      1.0730                 1.1623                 2.1443
 IR Inten    --      3.9485                11.3241                15.2169

                     40                     41                     42
                      A                      A                      A
 Frequencies --   1360.7220              1380.3858              1394.7955
 Red. masses --      1.3954                 1.2599                 1.3019
 Frc consts  --      1.5223                 1.4144                 1.4922
 IR Inten    --      0.5957                 3.6528                 5.4785

                     43                     44                     45
                      A                      A                      A
 Frequencies --   1421.2539              1451.2506              1458.1861
 Red. masses --      1.4122                 1.1152                 1.4455
 Frc consts  --      1.6807                 1.3838                 1.8109
 IR Inten    --      5.2339                 3.0521                10.9928

                     46                     47                     48
                      A                      A                      A
 Frequencies --   1484.7552              1633.1732              1646.4042
 Red. masses --      1.0887                 9.0332                 5.9040
 Frc consts  --      1.4140                14.1957                 9.4291
 IR Inten    --      7.4467               382.9142                45.0554

                     49                     50                     51
                      A                      A                      A
 Frequencies --   1707.5291              1733.1323              1778.1946
 Red. masses --      8.0837                10.4889                10.6066
 Frc consts  --     13.8866                18.5628                19.7600
 IR Inten    --      4.9135                39.6703               310.3527

                     52                     53                     54
                      A                      A                      A
 Frequencies --   2866.6330              3018.1104              3061.1796
 Red. masses --      1.0824                 1.0632                 1.0855
 Frc consts  --      5.2407                 5.7059                 5.9932
 IR Inten    --    116.8666                17.1796                30.3929

                     55                     56                     57
                      A                      A                      A
 Frequencies --   3071.3697              3078.2005              3092.7492
 Red. masses --      1.0552                 1.0975                 1.0835
 Frc consts  --      5.8647                 6.1272                 6.1063
 IR Inten    --     10.8019                13.7592                12.7806

                     58                     59                     60
                      A                      A                      A
 Frequencies --   3122.7923              3133.8666              3155.4578
 Red. masses --      1.0833                 1.1095                 1.0902
 Frc consts  --      6.2244                 6.4202                 6.3958
 IR Inten    --      3.4430                 3.3811                 7.0612

 - Thermochemistry -
 -------------------
 Temperature   298.150 Kelvin.  Pressure   1.00000 Atm.
 Atom     1 has atomic number  8 and mass  15.99491

 Molecular mass:   191.04049 amu.
 Principal axes and moments of inertia in atomic units:
                           1         2         3
     Eigenvalues --  1527.598773551.823004797.49680
           X            0.99995  -0.00983  -0.00132
           Y            0.00985   0.99974   0.02037
           Z            0.00112  -0.02038   0.99979
 This molecule is an asymmetric top.
 Rotational symmetry number  1.
 Warning -- assumption of classical behavior for rotation
           may cause significant error
 Rotational temperatures (Kelvin)      0.05670     0.02439     0.01805
 Rotational constants (GHZ):           1.18142     0.50812     0.37618
 Zero-point vibrational energy     436772.3 (Joules/Mol)
                                  104.39108 (Kcal/Mol)
 Warning -- explicit consideration of  16 degrees of freedom as
           vibrations may cause significant error
 Vibrational temperatures:     63.66    98.01   192.48   209.66   253.56
          (Kelvin)            263.81   370.46   395.76   435.29   476.40
                              528.43   576.50   672.02   688.38   792.05
                              858.07   914.49   965.62  1001.38  1046.06
                             1137.40  1151.04  1247.05  1274.45  1285.61
                             1316.09  1342.93  1407.77  1444.14  1474.59
                             1489.41  1522.15  1536.68  1596.77  1653.32
                             1713.63  1779.14  1802.65  1830.47  1957.78
                             1986.07  2006.80  2044.87  2088.03  2098.00
                             2136.23  2349.77  2368.81  2456.75  2493.59
                             2558.43  4124.45  4342.39  4404.35  4419.02
                             4428.84  4449.78  4493.00  4508.94  4540.00

 Zero-point correction=                           0.166358 (Hartree/Particle)
 Thermal correction to Energy=                    0.177840
 Thermal correction to Enthalpy=                  0.178784
 Thermal correction to Gibbs Free Energy=         0.128143
 Sum of electronic and zero-point Energies=           -914.406603
 Sum of electronic and thermal Energies=              -914.395121
 Sum of electronic and thermal Enthalpies=            -914.394177
 Sum of electronic and thermal Free Energies=         -914.444819

                     E (Thermal)             CV                S
                      KCal/Mol        Cal/Mol-Kelvin    Cal/Mol-Kelvin
 Total                  111.596             43.533            106.585
 Electronic               0.000              0.000              0.000
 Translational            0.889              2.981             41.648
 Rotational               0.889              2.981             31.632
 Vibrational            109.819             37.571             33.305
 Vibration     1          0.595              1.980              5.059
 Vibration     2          0.598              1.969              4.207
 Vibration     3          0.613              1.920              2.891
 Vibration     4          0.617              1.907              2.727
 Vibration     5          0.628              1.872              2.368
 Vibration     6          0.631              1.862              2.294
 Vibration     7          0.667              1.750              1.679
 Vibration     8          0.677              1.719              1.564
 Vibration     9          0.694              1.669              1.403
 Vibration    10          0.713              1.613              1.255
 Vibration    11          0.740              1.540              1.091
 Vibration    12          0.767              1.469              0.960
 Vibration    13          0.824              1.323              0.746
 Vibration    14          0.835              1.298              0.714
 Vibration    15          0.906              1.139              0.543
 Vibration    16          0.954              1.039              0.456

 Optimization completed.
    -- Stationary point found.
 Normal termination of Gaussian 16 at Fri May 19 20:35:50 2023.
