 Gaussian 16, Revision A.03,
 Gaussian 16:  ES64L-G16RevA.03 25-Dec-2016

 -----------------------------
 # opt freq b3lyp/6-31g(2df,p)
 -----------------------------

 -------------------
 Title Card Required
 -------------------
 Symbolic Z-matrix:
 Charge =  0 Multiplicity = 1

 SCF Done:  E(RB3LYP) =  -1634.41200605     A.U. after   21 cycles
 SCF Done:  E(RB3LYP) =  -1634.47857877     A.U. after   17 cycles
 SCF Done:  E(RB3LYP) =  -1634.56079573     A.U. after   17 cycles
 SCF Done:  E(RB3LYP) =  -1634.59737901     A.U. after   17 cycles
 SCF Done:  E(RB3LYP) =  -1634.63900107     A.U. after   15 cycles
 SCF Done:  E(RB3LYP) =  -1634.67414491     A.U. after   15 cycles
 SCF Done:  E(RB3LYP) =  -1634.69105159     A.U. after   14 cycles
 SCF Done:  E(RB3LYP) =  -1634.71669497     A.U. after   15 cycles
 SCF Done:  E(RB3LYP) =  -1634.72448857     A.U. after   13 cycles
 SCF Done:  E(RB3LYP) =  -1634.73035289     A.U. after   13 cycles
 SCF Done:  E(RB3LYP) =  -1634.74602268     A.U. after    8 cycles
 SCF Done:  E(RB3LYP) =  -1634.74602313     A.U. after    8 cycles
 SCF Done:  E(RB3LYP) =  -1634.74602339     A.U. after    8 cycles
 SCF Done:  E(RB3LYP) =  -1634.74602353     A.U. after    8 cycles
 SCF Done:  E(RB3LYP) =  -1634.74602368     A.U. after    8 cycles
 SCF Done:  E(RB3LYP) =  -1634.74602381     A.U. after    8 cycles
 SCF Done:  E(RB3LYP) =  -1634.74602390     A.U. after    8 cycles
 SCF Done:  E(RB3LYP) =  -1634.74602398     A.U. after    7 cycles
 SCF Done:  E(RB3LYP) =  -1634.74602402     A.U. after    7 cycles
 Optimization completed.
    -- Stationary point found.
 Normal termination of Gaussian 16 at Wed May 17 10:31:39 2023.

 ----------------------------------------------------------------------
 #N Geom=AllCheck Guess=TCheck SCRF=Check GenChk RB3LYP/6-31G(2df,p) Fr
 eq
 ----------------------------------------------------------------------

 Structure from the checkpoint file:  "OdCNC1dCCdCCdCC2dS1[SH]d[SH]2.chk"
 -------------------
 Title Card Required
 -------------------
 Charge =  0 Multiplicity = 1

                         Standard orientation:
 ---------------------------------------------------------------------
 Center     Atomic      Atomic             Coordinates (Angstroms)
 Number     Number       Type             X           Y           Z
 ---------------------------------------------------------------------
      1          8           0        3.204004   -3.155316    0.730228
      2          6           0        2.920590   -1.990343    0.593953
      3          7           0        2.062992   -1.523435   -0.382193
      4          6           0        1.711636   -0.191202   -0.599081
      5          6           0        2.586312    0.829512   -0.445004
      6          6           0        2.304933    2.238773   -0.435664
      7          6           0        1.263552    2.940339    0.089369
      8          6           0        0.132890    2.601303    0.918645
      9          6           0       -0.690997    1.522368    1.065781
     10          6           0       -0.804846    0.299896    0.341209
     11         16           0        0.054916    0.062581   -1.204100
     12         16           0       -4.275158   -0.679167   -0.465838
     13         16           0       -2.119631   -0.693299    0.709789
     14          1           0        3.297747   -1.177319    1.239248
     15          1           0        1.583945   -2.237407   -0.915557
     16          1           0        3.637345    0.559977   -0.348537
     17          1           0        3.110038    2.848310   -0.841393
     18          1           0        1.377649    4.019466   -0.004829
     19          1           0       -0.131370    3.426121    1.578418
     20          1           0       -1.431341    1.630096    1.858305
     21          1           0       -4.826808    0.012366    0.548492
     22          1           0       -1.796627   -1.720751   -0.093499
 ---------------------------------------------------------------------

 SCF Done:  E(RB3LYP) =  -1634.74602402     A.U. after    1 cycles

 The electronic state is 1-A.
 Alpha  occ. eigenvalues --  -88.96612 -88.91001 -88.84557 -19.13285 -14.39168
 Alpha  occ. eigenvalues --  -10.30076 -10.27660 -10.26080 -10.22336 -10.21841
 Alpha  occ. eigenvalues --  -10.21454 -10.21287 -10.21265  -8.02472  -7.97125
 Alpha  occ. eigenvalues --   -7.91386  -5.98782  -5.98571  -5.98307  -5.93631
 Alpha  occ. eigenvalues --   -5.93289  -5.92655  -5.87678  -5.87529  -5.86945
 Alpha  occ. eigenvalues --   -1.05914  -0.96598  -0.87995  -0.83588  -0.80436
 Alpha  occ. eigenvalues --   -0.78046  -0.72815  -0.70075  -0.67433  -0.65422
 Alpha  occ. eigenvalues --   -0.61844  -0.58210  -0.54695  -0.51837  -0.50919
 Alpha  occ. eigenvalues --   -0.49481  -0.47161  -0.45727  -0.44935  -0.43431
 Alpha  occ. eigenvalues --   -0.43085  -0.41836  -0.39941  -0.38771  -0.37958
 Alpha  occ. eigenvalues --   -0.36602  -0.35063  -0.33782  -0.32712  -0.29370
 Alpha  occ. eigenvalues --   -0.28095  -0.26555  -0.24972  -0.23407  -0.19492
 Alpha virt. eigenvalues --   -0.10146  -0.06425  -0.02452  -0.00940   0.01495
 Alpha virt. eigenvalues --    0.04888   0.05540   0.06224   0.07347   0.08024
 Alpha virt. eigenvalues --    0.08433   0.09946   0.11547   0.13261   0.15090

 Mulliken charges:
               1
     1  O   -0.302864
     2  C    0.154540
     3  N   -0.322168
     4  C    0.233810
     5  C   -0.170335
     6  C   -0.081647
     7  C   -0.081719
     8  C   -0.087028
     9  C   -0.105179
    10  C    0.058574
    11  S   -0.172229
    12  S   -0.414337
    13  S    0.016881
    14  H    0.096202
    15  H    0.268758
    16  H    0.115377
    17  H    0.106244
    18  H    0.104311
    19  H    0.107161
    20  H    0.113522
    21  H    0.156760
    22  H    0.205365
 Sum of Mulliken charges =  -0.00000

 Dipole moment (field-independent basis, Debye):
    X=              2.1942    Y=              3.1163    Z=              1.1252  Tot=              3.9739
 Quadrupole moment (field-independent basis, Debye-Ang):
   XX=           -111.0821   YY=           -100.0677   ZZ=            -97.8995
   XY=              7.9328   XZ=            -10.3279   YZ=              6.7250

  Exact polarizability: 329.090  44.348 195.218   4.101   9.558 107.991
 Approx polarizability: 740.503 172.237 389.154  24.546  31.659 201.460

                      1                      2                      3
                      A                      A                      A
 Frequencies --     31.0422                44.0679                63.9849
 Red. masses --      9.3746                 6.9644                 8.7023
 Frc consts  --      0.0053                 0.0080                 0.0210
 IR Inten    --      1.4791                 1.8399                 3.4508

                      4                      5                      6
                      A                      A                      A
 Frequencies --     86.4961               125.2288               132.9095
 Red. masses --      7.8452                 5.9170                 5.2616
 Frc consts  --      0.0346                 0.0547                 0.0548
 IR Inten    --      7.9377                18.1100                 3.6742

                      7                      8                      9
                      A                      A                      A
 Frequencies --    164.1870               175.1389               197.6072
 Red. masses --      1.3920                 1.7538                 5.6569
 Frc consts  --      0.0221                 0.0317                 0.1301
 IR Inten    --      9.7354                 2.7684                36.5902

                     10                     11                     12
                      A                      A                      A
 Frequencies --    228.1491               248.6550               259.5785
 Red. masses --      6.9515                 6.3071                 4.8324
 Frc consts  --      0.2132                 0.2298                 0.1918
 IR Inten    --     30.3040                89.2024                36.8021

                     13                     14                     15
                      A                      A                      A
 Frequencies --    283.5138               330.6539               371.4698
 Red. masses --      5.5812                 5.4670                 7.3254
 Frc consts  --      0.2643                 0.3522                 0.5956
 IR Inten    --      4.8029                 2.1510                 5.5286

                     16                     17                     18
                      A                      A                      A
 Frequencies --    418.6373               467.2262               504.7192
 Red. masses --      4.7096                 4.1634                 6.4029
 Frc consts  --      0.4863                 0.5355                 0.9610
 IR Inten    --     25.0832                 3.0147                13.1756

                     19                     20                     21
                      A                      A                      A
 Frequencies --    515.3270               546.3823               599.4460
 Red. masses --      3.6264                 1.2840                 4.2445
 Frc consts  --      0.5674                 0.2258                 0.8986
 IR Inten    --      2.1985                20.0471                17.7372

                     22                     23                     24
                      A                      A                      A
 Frequencies --    612.7995               653.5830               665.7658
 Red. masses --      3.8597                 3.2979                 1.2758
 Frc consts  --      0.8540                 0.8300                 0.3332
 IR Inten    --      4.9880                15.1919                68.4069

                     25                     26                     27
                      A                      A                      A
 Frequencies --    694.3441               747.3367               773.3213
 Red. masses --      1.2101                 1.5282                 5.2479
 Frc consts  --      0.3437                 0.5029                 1.8491
 IR Inten    --     67.0368                31.5826                30.6247

                     28                     29                     30
                      A                      A                      A
 Frequencies --    822.1024               844.0199               903.4420
 Red. masses --      1.8911                 2.5427                 2.6901
 Frc consts  --      0.7531                 1.0672                 1.2937
 IR Inten    --      3.6700                10.2293                 7.6664

                     31                     32                     33
                      A                      A                      A
 Frequencies --    915.9972               975.8307               985.4392
 Red. masses --      1.6933                 1.4213                 1.3403
 Frc consts  --      0.8371                 0.7974                 0.7668
 IR Inten    --     15.1131                10.9181                 1.1266

                     34                     35                     36
                      A                      A                      A
 Frequencies --   1005.7241              1038.2607              1042.4983
 Red. masses --      1.3073                 4.4361                 1.5701
 Frc consts  --      0.7791                 2.8175                 1.0054
 IR Inten    --      1.0438                 9.0689                 3.5106

                     37                     38                     39
                      A                      A                      A
 Frequencies --   1059.0335              1160.5817              1211.1472
 Red. masses --      2.5922                 3.2996                 2.3535
 Frc consts  --      1.7129                 2.6186                 2.0340
 IR Inten    --      8.9921                20.5612                 3.9303

                     40                     41                     42
                      A                      A                      A
 Frequencies --   1230.9908              1309.6155              1333.9533
 Red. masses --      2.9798                 1.1574                 1.3550
 Frc consts  --      2.6604                 1.1696                 1.4206
 IR Inten    --    436.8684                 2.4398                11.0152

                     43                     44                     45
                      A                      A                      A
 Frequencies --   1351.0138              1395.0881              1455.5184
 Red. masses --      1.2263                 1.2341                 1.4153
 Frc consts  --      1.3188                 1.4151                 1.7666
 IR Inten    --      5.0740                59.1862                 5.0585

                     46                     47                     48
                      A                      A                      A
 Frequencies --   1470.8285              1492.1183              1559.9866
 Red. masses --      1.5663                 1.6539                 7.7083
 Frc consts  --      1.9964                 2.1696                11.0523
 IR Inten    --     75.6399                 0.1960                11.5430

                     49                     50                     51
                      A                      A                      A
 Frequencies --   1638.0768              1651.7187              1812.4928
 Red. masses --      5.9091                 5.2262                 7.7079
 Frc consts  --      9.3420                 8.4006                14.9190
 IR Inten    --     31.9626                42.6700               604.7600

                     52                     53                     54
                      A                      A                      A
 Frequencies --   2681.9567              2685.8087              2982.6855
 Red. masses --      1.0388                 1.0386                 1.0867
 Frc consts  --      4.4023                 4.4141                 5.6962
 IR Inten    --     13.0919                 0.5933                32.4009

                     55                     56                     57
                      A                      A                      A
 Frequencies --   3115.5969              3123.3923              3130.6299
 Red. masses --      1.0815                 1.0832                 1.0860
 Frc consts  --      6.1852                 6.2259                 6.2709
 IR Inten    --      3.0285                 4.7936                18.1821

                     58                     59                     60
                      A                      A                      A
 Frequencies --   3142.0028              3152.5326              3590.1816
 Red. masses --      1.0884                 1.0908                 1.0759
 Frc consts  --      6.3305                 6.3872                 8.1703
 IR Inten    --     20.9427                31.4279                30.1931

 - Thermochemistry -
 -------------------
 Temperature   298.150 Kelvin.  Pressure   1.00000 Atm.
 Atom     1 has atomic number  8 and mass  15.99491

 Molecular mass:   230.98463 amu.
 Principal axes and moments of inertia in atomic units:
                           1         2         3
     Eigenvalues --  2601.311345218.926516907.56284
           X            0.99990   0.01296  -0.00525
           Y           -0.01288   0.99982   0.01386
           Z            0.00543  -0.01379   0.99989
 This molecule is an asymmetric top.
 Rotational symmetry number  1.
 Warning -- assumption of classical behavior for rotation
           may cause significant error
 Rotational temperatures (Kelvin)      0.03330     0.01660     0.01254
 Rotational constants (GHZ):           0.69378     0.34581     0.26127
 Zero-point vibrational energy     402016.1 (Joules/Mol)
                                   96.08414 (Kcal/Mol)
 Warning -- explicit consideration of  22 degrees of freedom as
           vibrations may cause significant error
 Vibrational temperatures:     44.66    63.40    92.06   124.45   180.18
          (Kelvin)            191.23   236.23   251.99   284.31   328.26
                              357.76   373.48   407.91   475.74   534.46
                              602.33   672.23   726.18   741.44   786.12
                              862.47   881.68   940.36   957.89   999.01
                             1075.25  1112.64  1182.82  1214.36  1299.85
                             1317.92  1404.00  1417.83  1447.01  1493.83
                             1499.92  1523.71  1669.82  1742.57  1771.12
                             1884.24  1919.26  1943.81  2007.22  2094.17
                             2116.19  2146.83  2244.47  2356.83  2376.45
                             2607.77  3858.74  3864.28  4291.42  4482.65
                             4493.86  4504.28  4520.64  4535.79  5165.47

 Zero-point correction=                           0.153120 (Hartree/Particle)
 Thermal correction to Energy=                    0.167631
 Thermal correction to Enthalpy=                  0.168575
 Thermal correction to Gibbs Free Energy=         0.109941
 Sum of electronic and zero-point Energies=          -1634.592904
 Sum of electronic and thermal Energies=             -1634.578393
 Sum of electronic and thermal Enthalpies=           -1634.577449
 Sum of electronic and thermal Free Energies=        -1634.636083

                     E (Thermal)             CV                S
                      KCal/Mol        Cal/Mol-Kelvin    Cal/Mol-Kelvin
 Total                  105.190             51.825            123.407
 Electronic               0.000              0.000              0.000
 Translational            0.889              2.981             42.213
 Rotational               0.889              2.981             32.905
 Vibrational            103.413             45.864             48.288
 Vibration     1          0.594              1.983              5.762
 Vibration     2          0.595              1.980              5.067
 Vibration     3          0.597              1.971              4.330
 Vibration     4          0.601              1.959              3.738
 Vibration     5          0.610              1.928              3.018
 Vibration     6          0.613              1.920              2.904
 Vibration     7          0.623              1.886              2.501
 Vibration     8          0.627              1.873              2.380
 Vibration     9          0.637              1.843              2.155
 Vibration    10          0.651              1.798              1.893
 Vibration    11          0.662              1.765              1.740
 Vibration    12          0.668              1.747              1.665
 Vibration    13          0.682              1.704              1.512
 Vibration    14          0.713              1.614              1.257
 Vibration    15          0.743              1.531              1.074
 Vibration    16          0.781              1.430              0.897
 Vibration    17          0.824              1.323              0.745
 Vibration    18          0.860              1.240              0.646
 Vibration    19          0.870              1.216              0.621
 Vibration    20          0.902              1.148              0.552
 Vibration    21          0.958              1.033              0.451
 Vibration    22          0.972              1.005              0.428

 Optimization completed.
    -- Stationary point found.
 Normal termination of Gaussian 16 at Wed May 17 11:32:40 2023.
