 Gaussian 16, Revision A.03,
 Gaussian 16:  ES64L-G16RevA.03 25-Dec-2016

 -----------------------------
 # opt freq b3lyp/6-31g(2df,p)
 -----------------------------

 -------------------
 Title Card Required
 -------------------
 Symbolic Z-matrix:
 Charge =  0 Multiplicity = 1

 SCF Done:  E(RB3LYP) =  -896.259916029     A.U. after   17 cycles
 SCF Done:  E(RB3LYP) =  -896.287175407     A.U. after   14 cycles
 SCF Done:  E(RB3LYP) =  -896.296087047     A.U. after   13 cycles
 SCF Done:  E(RB3LYP) =  -896.299175395     A.U. after   13 cycles
 SCF Done:  E(RB3LYP) =  -896.303072048     A.U. after   13 cycles
 SCF Done:  E(RB3LYP) =  -896.310578799     A.U. after   15 cycles
 SCF Done:  E(RB3LYP) =  -896.313702911     A.U. after   13 cycles
 SCF Done:  E(RB3LYP) =  -896.318617553     A.U. after   15 cycles
 SCF Done:  E(RB3LYP) =  -896.320338549     A.U. after   13 cycles
 SCF Done:  E(RB3LYP) =  -896.321966564     A.U. after   13 cycles
 SCF Done:  E(RB3LYP) =  -896.322860079     A.U. after   12 cycles
 SCF Done:  E(RB3LYP) =  -896.322919451     A.U. after   11 cycles
 SCF Done:  E(RB3LYP) =  -896.322992542     A.U. after   11 cycles
 SCF Done:  E(RB3LYP) =  -896.323026587     A.U. after   11 cycles
 SCF Done:  E(RB3LYP) =  -896.323039247     A.U. after    9 cycles
 SCF Done:  E(RB3LYP) =  -896.323056880     A.U. after   11 cycles
 SCF Done:  E(RB3LYP) =  -896.323062464     A.U. after    9 cycles
 SCF Done:  E(RB3LYP) =  -896.323063937     A.U. after    9 cycles
 SCF Done:  E(RB3LYP) =  -896.323064192     A.U. after    8 cycles
 Optimization completed.
    -- Stationary point found.
 Normal termination of Gaussian 16 at Sat May 20 18:47:14 2023.

 ----------------------------------------------------------------------
 #N Geom=AllCheck Guess=TCheck SCRF=Check GenChk RB3LYP/6-31G(2df,p) Fr
 eq
 ----------------------------------------------------------------------

 Structure from the checkpoint file:  "OdCOC1[SH]dCCdC2CdCCdC21.chk"
 -------------------
 Title Card Required
 -------------------
 Charge =  0 Multiplicity = 1

                         Standard orientation:
 ---------------------------------------------------------------------
 Center     Atomic      Atomic             Coordinates (Angstroms)
 Number     Number       Type             X           Y           Z
 ---------------------------------------------------------------------
      1          8           0        2.259454   -2.267496   -1.121189
      2          6           0        1.395298   -1.591933   -0.652761
      3          8           0        1.535085   -1.072355    0.608032
      4          6           0        0.556196   -0.183588    1.131455
      5         16           0        1.134387    1.613151    0.795062
      6          6           0        0.756044    1.827960   -0.919736
      7          6           0       -0.451776    1.343422   -1.329569
      8          6           0       -1.265304    0.478299   -0.566962
      9          6           0       -2.599755    0.053141   -0.807365
     10          6           0       -2.969923   -0.828357    0.203064
     11          6           0       -1.876885   -0.988875    1.090974
     12          6           0       -0.828759   -0.185100    0.637872
     13          1           0        0.439997   -1.333223   -1.125773
     14          1           0        0.653443   -0.264699    2.215337
     15          1           0        2.471150    1.396617    0.712929
     16          1           0        1.431055    2.468195   -1.465025
     17          1           0       -0.781139    1.626948   -2.327644
     18          1           0       -3.225526    0.401964   -1.618577
     19          1           0       -3.935540   -1.302931    0.311370
     20          1           0       -1.850762   -1.634292    1.959816
 ---------------------------------------------------------------------

 SCF Done:  E(RB3LYP) =  -896.323064192     A.U. after    1 cycles

 The electronic state is 1-A.
 Alpha  occ. eigenvalues --  -88.98891 -19.20425 -19.13855 -10.31313 -10.31154
 Alpha  occ. eigenvalues --  -10.21925 -10.21519 -10.16772 -10.16489 -10.16362
 Alpha  occ. eigenvalues --  -10.15645 -10.14951  -8.04905  -6.01241  -6.01053
 Alpha  occ. eigenvalues --   -6.00652  -1.11351  -1.03638  -0.88916  -0.83908
 Alpha  occ. eigenvalues --   -0.78603  -0.74212  -0.68290  -0.67152  -0.60472
 Alpha  occ. eigenvalues --   -0.59187  -0.56112  -0.54810  -0.50737  -0.50394
 Alpha  occ. eigenvalues --   -0.48814  -0.47403  -0.45543  -0.44101  -0.42103
 Alpha  occ. eigenvalues --   -0.41441  -0.39174  -0.36916  -0.36114  -0.35668
 Alpha  occ. eigenvalues --   -0.35352  -0.33491  -0.32005  -0.28680  -0.28272
 Alpha  occ. eigenvalues --   -0.19508  -0.18205
 Alpha virt. eigenvalues --   -0.05318  -0.03688   0.00248   0.00725   0.03265
 Alpha virt. eigenvalues --    0.06691   0.09809   0.10339   0.11520   0.13858
 Alpha virt. eigenvalues --    0.14707   0.15709   0.16645   0.18430   0.18994

 Mulliken charges:
               1
     1  O   -0.265156
     2  C    0.160150
     3  O   -0.207107
     4  C   -0.046952
     5  S    0.105549
     6  C   -0.264886
     7  C   -0.119801
     8  C    0.190078
     9  C   -0.241380
    10  C   -0.121959
    11  C   -0.254805
    12  C    0.083004
    13  H    0.139878
    14  H    0.151736
    15  H    0.192590
    16  H    0.137616
    17  H    0.115768
    18  H    0.081157
    19  H    0.080413
    20  H    0.084107
 Sum of Mulliken charges =  -0.00000

 Dipole moment (field-independent basis, Debye):
    X=              1.7963    Y=              3.9179    Z=              1.4473  Tot=              4.5466
 Quadrupole moment (field-independent basis, Debye-Ang):
   XX=            -80.2124   YY=            -78.4288   ZZ=            -71.4531
   XY=             11.7653   XZ=              5.8419   YZ=             -4.9277

  Exact polarizability: 157.522  27.191 111.910   3.082 -14.992 103.792
 Approx polarizability: 287.858  68.986 203.006   3.211 -36.290 189.834

                      1                      2                      3
                      A                      A                      A
 Frequencies --     58.2050                93.7496               110.8349
 Red. masses --      7.3680                 5.4908                 6.2826
 Frc consts  --      0.0147                 0.0284                 0.0455
 IR Inten    --      1.8168                 2.0928                 0.8881

                      4                      5                      6
                      A                      A                      A
 Frequencies --    157.9289               165.3456               230.5307
 Red. masses --      3.5793                 2.4860                 8.1110
 Frc consts  --      0.0526                 0.0400                 0.2540
 IR Inten    --      0.3411                10.6629                 1.1137

                      7                      8                      9
                      A                      A                      A
 Frequencies --    269.0396               305.7676               339.3363
 Red. masses --      5.8957                 7.2403                 4.9674
 Frc consts  --      0.2514                 0.3988                 0.3370
 IR Inten    --      7.6477                10.1733                 4.8148

                     10                     11                     12
                      A                      A                      A
 Frequencies --    395.8216               418.3271               520.2441
 Red. masses --      2.3486                 7.2655                 2.1990
 Frc consts  --      0.2168                 0.7491                 0.3507
 IR Inten    --     29.3230                 7.6647                36.3783

                     13                     14                     15
                      A                      A                      A
 Frequencies --    541.4329               570.5943               620.9362
 Red. masses --      3.9581                 3.4961                 3.9923
 Frc consts  --      0.6836                 0.6706                 0.9069
 IR Inten    --      1.1844                 4.9843                10.6682

                     16                     17                     18
                      A                      A                      A
 Frequencies --    638.9310               684.8749               699.5356
 Red. masses --      2.9299                 3.3786                 5.9267
 Frc consts  --      0.7047                 0.9337                 1.7088
 IR Inten    --      9.2374                 6.8580                19.9744

                     19                     20                     21
                      A                      A                      A
 Frequencies --    748.9456               761.4935               777.1242
 Red. masses --      1.2559                 2.2496                 1.7715
 Frc consts  --      0.4151                 0.7686                 0.6303
 IR Inten    --     36.0946                 3.9193                24.7416

                     22                     23                     24
                      A                      A                      A
 Frequencies --    786.8933               821.2424               863.7565
 Red. masses --      2.5931                 1.8385                 4.4865
 Frc consts  --      0.9460                 0.7306                 1.9721
 IR Inten    --     24.0179                 6.0624                 0.3570

                     25                     26                     27
                      A                      A                      A
 Frequencies --    871.3744               903.4588               959.5701
 Red. masses --      1.3153                 1.5373                 1.3823
 Frc consts  --      0.5884                 0.7393                 0.7499
 IR Inten    --      1.5294                 4.2483                11.8371

                     28                     29                     30
                      A                      A                      A
 Frequencies --    979.7034              1040.5784              1048.7297
 Red. masses --      4.5975                 1.8563                 1.6412
 Frc consts  --      2.5999                 1.1843                 1.0635
 IR Inten    --    200.1067               139.4200                 6.6924

                     31                     32                     33
                      A                      A                      A
 Frequencies --   1062.6981              1080.9240              1112.3187
 Red. masses --      2.3994                 1.4454                 1.2978
 Frc consts  --      1.5965                 0.9950                 0.9461
 IR Inten    --    186.7369                19.5618                31.7422

                     34                     35                     36
                      A                      A                      A
 Frequencies --   1170.6765              1218.6377              1247.8495
 Red. masses --      1.2859                 1.9316                 1.8563
 Frc consts  --      1.0383                 1.6901                 1.7030
 IR Inten    --     12.8136                 5.1459                22.2722

                     37                     38                     39
                      A                      A                      A
 Frequencies --   1289.4184              1350.4139              1368.9813
 Red. masses --      1.6835                 2.8421                 1.3795
 Frc consts  --      1.6491                 3.0536                 1.5232
 IR Inten    --     69.1936                39.1725                37.2817

                     40                     41                     42
                      A                      A                      A
 Frequencies --   1388.5951              1401.5668              1406.6724
 Red. masses --      3.0078                 2.8731                 1.4031
 Frc consts  --      3.4170                 3.3253                 1.6358
 IR Inten    --     57.4039                20.8077                17.4273

                     43                     44                     45
                      A                      A                      A
 Frequencies --   1479.4608              1532.8208              1588.3618
 Red. masses --      4.0567                 4.2086                 6.2131
 Frc consts  --      5.2315                 5.8260                 9.2354
 IR Inten    --      8.6002                18.9869               313.1556

                     46                     47                     48
                      A                      A                      A
 Frequencies --   1855.4618              2583.5972              3076.8824
 Red. masses --      9.1358                 1.0386                 1.0962
 Frc consts  --     18.5310                 4.0847                 6.1143
 IR Inten    --    384.7002                11.9804                 8.7073

                     49                     50                     51
                      A                      A                      A
 Frequencies --   3104.5578              3149.2917              3203.8019
 Red. masses --      1.0870                 1.0876                 1.0873
 Frc consts  --      6.1727                 6.3554                 6.5754
 IR Inten    --      6.3975                 7.6963                 0.8516

                     52                     53                     54
                      A                      A                      A
 Frequencies --   3211.6026              3232.9745              3256.0163
 Red. masses --      1.0926                 1.1020                 1.0933
 Frc consts  --      6.6396                 6.7864                 6.8292
 IR Inten    --     16.5852                20.6825                12.0847

 - Thermochemistry -
 -------------------
 Temperature   298.150 Kelvin.  Pressure   1.00000 Atm.
 Atom     1 has atomic number  8 and mass  15.99491

 Molecular mass:   180.02450 amu.
 Principal axes and moments of inertia in atomic units:
                           1         2         3
     Eigenvalues --  1665.215242296.340322891.68237
           X            0.99772   0.06715   0.00630
           Y           -0.06668   0.99613  -0.05720
           Z           -0.01012   0.05665   0.99834
 This molecule is an asymmetric top.
 Rotational symmetry number  1.
 Warning -- assumption of classical behavior for rotation
           may cause significant error
 Rotational temperatures (Kelvin)      0.05201     0.03772     0.02995
 Rotational constants (GHZ):           1.08379     0.78592     0.62411
 Zero-point vibrational energy     381356.9 (Joules/Mol)
                                   91.14648 (Kcal/Mol)
 Warning -- explicit consideration of  14 degrees of freedom as
           vibrations may cause significant error
 Vibrational temperatures:     83.74   134.88   159.47   227.22   237.90
          (Kelvin)            331.68   387.09   439.93   488.23   569.50
                              601.88   748.52   779.00   820.96   893.39
                              919.28   985.38  1006.48  1077.57  1095.62
                             1118.11  1132.16  1181.58  1242.75  1253.71
                             1299.88  1380.61  1409.57  1497.16  1508.89
                             1528.99  1555.21  1600.38  1684.34  1753.35
                             1795.38  1855.19  1942.94  1969.66  1997.88
                             2016.54  2023.89  2128.61  2205.39  2285.30
                             2669.60  3717.22  4426.95  4466.77  4531.13
                             4609.56  4620.78  4651.53  4684.68

 Zero-point correction=                           0.145251 (Hartree/Particle)
 Thermal correction to Energy=                    0.156016
 Thermal correction to Enthalpy=                  0.156960
 Thermal correction to Gibbs Free Energy=         0.108422
 Sum of electronic and zero-point Energies=           -896.177813
 Sum of electronic and thermal Energies=              -896.167048
 Sum of electronic and thermal Enthalpies=            -896.166104
 Sum of electronic and thermal Free Energies=         -896.214643

                     E (Thermal)             CV                S
                      KCal/Mol        Cal/Mol-Kelvin    Cal/Mol-Kelvin
 Total                   97.901             41.305            102.157
 Electronic               0.000              0.000              0.000
 Translational            0.889              2.981             41.470
 Rotational               0.889              2.981             30.781
 Vibrational             96.124             35.344             29.906
 Vibration     1          0.596              1.974              4.517
 Vibration     2          0.603              1.954              3.580
 Vibration     3          0.607              1.941              3.254
 Vibration     4          0.621              1.894              2.574
 Vibration     5          0.624              1.885              2.488
 Vibration     6          0.652              1.794              1.875
 Vibration     7          0.673              1.730              1.602
 Vibration     8          0.696              1.663              1.385
 Vibration     9          0.719              1.597              1.215
 Vibration    10          0.763              1.479              0.978
 Vibration    11          0.781              1.430              0.898
 Vibration    12          0.875              1.205              0.609
 Vibration    13          0.897              1.158              0.562
 Vibration    14          0.927              1.095              0.503

                           ! Non-Optimized Parameters !
 Normal termination of Gaussian 16 at Sat May 20 19:40:56 2023.
