 Gaussian 16, Revision A.03,
 Gaussian 16:  ES64L-G16RevA.03 25-Dec-2016

 -----------------------------
 # opt freq b3lyp/6-31g(2df,p)
 -----------------------------

 -------------------
 Title Card Required
 -------------------
 Symbolic Z-matrix:
 Charge =  0 Multiplicity = 1

 SCF Done:  E(RB3LYP) =  -1196.06331882     A.U. after   18 cycles
 SCF Done:  E(RB3LYP) =  -1196.07109478     A.U. after   14 cycles
 SCF Done:  E(RB3LYP) =  -1196.07263690     A.U. after   14 cycles
 SCF Done:  E(RB3LYP) =  -1196.07223571     A.U. after   15 cycles
 SCF Done:  E(RB3LYP) =  -1196.07357501     A.U. after   14 cycles
 SCF Done:  E(RB3LYP) =  -1196.07411321     A.U. after   14 cycles
 SCF Done:  E(RB3LYP) =  -1196.07436879     A.U. after   13 cycles
 SCF Done:  E(RB3LYP) =  -1196.07458954     A.U. after   14 cycles
 SCF Done:  E(RB3LYP) =  -1196.07462718     A.U. after   13 cycles
 SCF Done:  E(RB3LYP) =  -1196.07464057     A.U. after   12 cycles
 SCF Done:  E(RB3LYP) =  -1196.07464565     A.U. after   11 cycles
 SCF Done:  E(RB3LYP) =  -1196.07464578     A.U. after    8 cycles
 Optimization completed.
    -- Stationary point found.
 Normal termination of Gaussian 16 at Fri May 19 14:28:08 2023.

 ----------------------------------------------------------------------
 #N Geom=AllCheck Guess=TCheck SCRF=Check GenChk RB3LYP/6-31G(2df,p) Fr
 eq
 ----------------------------------------------------------------------

 Structure from the checkpoint file:  "OdCqSrCdCC1dCCqdSrNdC1.chk"
 -------------------
 Title Card Required
 -------------------
 Charge =  0 Multiplicity = 1

                         Standard orientation:
 ---------------------------------------------------------------------
 Center     Atomic      Atomic             Coordinates (Angstroms)
 Number     Number       Type             X           Y           Z
 ---------------------------------------------------------------------
      1          8           0       -3.675720   -1.772910    0.001721
      2          6           0       -3.041441   -0.748448    0.000399
      3         16           0       -3.854572    0.882819   -0.001467
      4          6           0       -1.565249   -0.734600    0.000034
      5          6           0       -0.783870    0.359825    0.000504
      6          6           0        0.660390    0.367735    0.000369
      7          6           0        1.574583   -0.634390   -0.000392
      8          6           0        2.901588   -0.001566   -0.000013
      9         16           0        4.340964   -0.758819   -0.000830
     10          7           0        2.752058    1.422322    0.001106
     11          6           0        1.480182    1.620829    0.001318
     12          1           0       -5.084220    0.339507    0.000395
     13          1           0       -1.140430   -1.734298   -0.000363
     14          1           0       -1.254064    1.341304    0.001197
     15          1           0        1.423116   -1.702819   -0.001286
     16          1           0        1.057575    2.623032    0.001991
 ---------------------------------------------------------------------

 SCF Done:  E(RB3LYP) =  -1196.07464578     A.U. after    1 cycles

 The electronic state is 1-A.
 Alpha  occ. eigenvalues --  -88.89910 -88.88945 -19.15736 -14.35005 -10.31591
 Alpha  occ. eigenvalues --  -10.29051 -10.26451 -10.24643 -10.24344 -10.23514
 Alpha  occ. eigenvalues --  -10.23048  -7.96638  -7.95426  -5.93041  -5.92673
 Alpha  occ. eigenvalues --   -5.92254  -5.91868  -5.91646  -5.90866  -1.07120
 Alpha  occ. eigenvalues --   -0.98713  -0.85638  -0.80912  -0.79675  -0.76172
 Alpha  occ. eigenvalues --   -0.70238  -0.65169  -0.59070  -0.57465  -0.54590
 Alpha  occ. eigenvalues --   -0.52108  -0.48615  -0.47151  -0.44411  -0.44278
 Alpha  occ. eigenvalues --   -0.43108  -0.43098  -0.41105  -0.39499  -0.39085
 Alpha  occ. eigenvalues --   -0.34997  -0.30755  -0.30032  -0.28262  -0.27611
 Alpha  occ. eigenvalues --   -0.26586  -0.24962
 Alpha virt. eigenvalues --   -0.15497  -0.08031   0.00013   0.01508   0.02318
 Alpha virt. eigenvalues --    0.05093   0.07925   0.08425   0.08643   0.11377
 Alpha virt. eigenvalues --    0.13806   0.14815   0.17747   0.18924   0.19755

 Mulliken charges:
               1
     1  O   -0.298693
     2  C    0.331733
     3  S   -0.263297
     4  C   -0.191760
     5  C   -0.136679
     6  C    0.295826
     7  C   -0.298240
     8  C    0.305492
     9  S   -0.196902
    10  N   -0.258908
    11  C   -0.032860
    12  H    0.190136
    13  H    0.130982
    14  H    0.135178
    15  H    0.147906
    16  H    0.140086
 Sum of Mulliken charges =  -0.00000

 Dipole moment (field-independent basis, Debye):
    X=             -1.7627    Y=              0.7725    Z=             -0.0003  Tot=              1.9246
 Quadrupole moment (field-independent basis, Debye-Ang):
   XX=            -92.6288   YY=            -78.1905   ZZ=            -77.1922
   XY=             -9.2840   XZ=             -0.0023   YZ=              0.0068

  Exact polarizability: 260.273 -20.311 117.731  -0.023   0.009  56.491
 Approx polarizability: 433.004 -47.254 230.179  -0.083   0.005  97.185

                      1                      2                      3
                      A                      A                      A
 Frequencies --     19.9775                64.3537                73.1244
 Red. masses --     10.7343                 6.0336                 9.1577
 Frc consts  --      0.0025                 0.0147                 0.0289
 IR Inten    --      0.0252                 3.6915                 2.7219

                      4                      5                      6
                      A                      A                      A
 Frequencies --     92.4398               152.6959               155.4872
 Red. masses --      2.1685                 6.0900                13.6295
 Frc consts  --      0.0109                 0.0837                 0.1941
 IR Inten    --      0.3305                 0.6313                 0.8083

                      7                      8                      9
                      A                      A                      A
 Frequencies --    297.4476               320.2210               340.2791
 Red. masses --      9.3978                 1.4741                 2.0970
 Frc consts  --      0.4899                 0.0891                 0.1431
 IR Inten    --      6.9111                11.2276                 9.8291

                     10                     11                     12
                      A                      A                      A
 Frequencies --    358.2976               440.4606               453.4760
 Red. masses --      7.5783                 5.3173                 7.8466
 Frc consts  --      0.5732                 0.6078                 0.9507
 IR Inten    --      5.1547                19.7670                 3.5234

                     13                     14                     15
                      A                      A                      A
 Frequencies --    548.1213               555.3872               645.8594
 Red. masses --      9.3920                 2.8528                 4.9620
 Frc consts  --      1.6625                 0.5185                 1.2195
 IR Inten    --      2.4540                 8.2194               102.4496

                     16                     17                     18
                      A                      A                      A
 Frequencies --    653.3118               704.0879               739.6740
 Red. masses --      4.3636                 6.8431                 4.8491
 Frc consts  --      1.0973                 1.9988                 1.5631
 IR Inten    --      0.1879                 0.5582                10.6069

                     19                     20                     21
                      A                      A                      A
 Frequencies --    857.6363               883.1649               897.4949
 Red. masses --      1.4508                 2.8569                 1.8769
 Frc consts  --      0.6287                 1.3129                 0.8907
 IR Inten    --     15.2977                 2.6478                41.1060

                     22                     23                     24
                      A                      A                      A
 Frequencies --    897.5870               957.1936               960.0799
 Red. masses --      2.0239                 1.6168                 2.6391
 Frc consts  --      0.9607                 0.8728                 1.4333
 IR Inten    --      5.4853                 0.9943                 9.9278

                     25                     26                     27
                      A                      A                      A
 Frequencies --   1017.1196              1079.1915              1145.7914
 Red. masses --      1.1246                 4.8005                 5.2108
 Frc consts  --      0.6855                 3.2941                 4.0305
 IR Inten    --     25.2909                99.2822               315.0381

                     28                     29                     30
                      A                      A                      A
 Frequencies --   1155.6338              1208.7666              1290.4119
 Red. masses --      2.3416                 1.8923                 1.3679
 Frc consts  --      1.8425                 1.6290                 1.3421
 IR Inten    --     46.0820               120.3576                 4.6824

                     31                     32                     33
                      A                      A                      A
 Frequencies --   1323.7512              1340.1494              1361.2889
 Red. masses --      1.9243                 2.8423                 1.6188
 Frc consts  --      1.9867                 3.0077                 1.7675
 IR Inten    --    100.1789                38.2267                55.6712

                     34                     35                     36
                      A                      A                      A
 Frequencies --   1556.8680              1630.7539              1672.3766
 Red. masses --      9.0555                 7.1178                 5.4094
 Frc consts  --     12.9321                11.1525                 8.9139
 IR Inten    --      2.3797                 7.3978                 1.9410

                     37                     38                     39
                      A                      A                      A
 Frequencies --   1770.8824              2699.2509              3151.1233
 Red. masses --     12.0130                 1.0383                 1.0885
 Frc consts  --     22.1962                 4.4572                 6.3681
 IR Inten    --    284.1606                 2.7655                 9.9164

                     40                     41                     42
                      A                      A                      A
 Frequencies --   3169.2763              3181.2591              3259.1492
 Red. masses --      1.0943                 1.0889                 1.0973
 Frc consts  --      6.4759                 6.4931                 6.8675
 IR Inten    --      9.3504                 3.8686                 1.0714

 - Thermochemistry -
 -------------------
 Temperature   298.150 Kelvin.  Pressure   1.00000 Atm.
 Atom     1 has atomic number  8 and mass  15.99491

 Molecular mass:   182.98126 amu.
 Principal axes and moments of inertia in atomic units:
                           1         2         3
     Eigenvalues --   676.618116219.875256896.49199
           X            1.00000  -0.00081  -0.00000
           Y            0.00081   1.00000   0.00005
           Z            0.00000  -0.00005   1.00000
 This molecule is an asymmetric top.
 Rotational symmetry number  1.
 Warning -- assumption of classical behavior for rotation
           may cause significant error
 Rotational temperatures (Kelvin)      0.12801     0.01393     0.01256
 Rotational constants (GHZ):           2.66730     0.29016     0.26169
 Zero-point vibrational energy     269643.7 (Joules/Mol)
                                   64.44639 (Kcal/Mol)
 Warning -- explicit consideration of  14 degrees of freedom as
           vibrations may cause significant error
 Vibrational temperatures:     28.74    92.59   105.21   133.00   219.70
          (Kelvin)            223.71   427.96   460.73   489.59   515.51
                              633.72   652.45   788.62   799.08   929.25
                              939.97  1013.03  1064.23  1233.95  1270.68
                             1291.30  1291.43  1377.19  1381.34  1463.41
                             1552.72  1648.54  1662.70  1739.15  1856.61
                             1904.58  1928.18  1958.59  2239.99  2346.29
                             2406.18  2547.90  3883.62  4533.76  4559.88
                             4577.12  4689.19

 Zero-point correction=                           0.102702 (Hartree/Particle)
 Thermal correction to Energy=                    0.113465
 Thermal correction to Enthalpy=                  0.114409
 Thermal correction to Gibbs Free Energy=         0.063357
 Sum of electronic and zero-point Energies=          -1195.971944
 Sum of electronic and thermal Energies=             -1195.961181
 Sum of electronic and thermal Enthalpies=           -1195.960237
 Sum of electronic and thermal Free Energies=        -1196.011289

                     E (Thermal)             CV                S
                      KCal/Mol        Cal/Mol-Kelvin    Cal/Mol-Kelvin
 Total                   71.200             37.537            107.448
 Electronic               0.000              0.000              0.000
 Translational            0.889              2.981             41.519
 Rotational               0.889              2.981             31.740
 Vibrational             69.423             31.575             34.189
 Vibration     1          0.593              1.986              6.636
 Vibration     2          0.597              1.971              4.319
 Vibration     3          0.599              1.967              4.067
 Vibration     4          0.602              1.955              3.608
 Vibration     5          0.619              1.900              2.638
 Vibration     6          0.620              1.897              2.604
 Vibration     7          0.691              1.678              1.431
 Vibration     8          0.706              1.635              1.309
 Vibration     9          0.720              1.595              1.211
 Vibration    10          0.733              1.558              1.129
 Vibration    11          0.800              1.382              0.825
 Vibration    12          0.812              1.353              0.785
 Vibration    13          0.903              1.144              0.548
 Vibration    14          0.911              1.128              0.533

                           ! Non-Optimized Parameters !
 Normal termination of Gaussian 16 at Fri May 19 14:52:57 2023.
