 Gaussian 16, Revision A.03,
 Gaussian 16:  ES64L-G16RevA.03 25-Dec-2016

 -----------------------------
 # opt freq b3lyp/6-31g(2df,p)
 -----------------------------

 -------------------
 Title Card Required
 -------------------
 Symbolic Z-matrix:
 Charge =  0 Multiplicity = 1

 SCF Done:  E(RB3LYP) =  -949.028282484     A.U. after   25 cycles
 SCF Done:  E(RB3LYP) =  -949.299948578     A.U. after   20 cycles
 SCF Done:  E(RB3LYP) =  -949.638524623     A.U. after   19 cycles
 SCF Done:  E(RB3LYP) =  -949.847789181     A.U. after   19 cycles
 SCF Done:  E(RB3LYP) =  -949.970824051     A.U. after   17 cycles
 SCF Done:  E(RB3LYP) =  -950.037096524     A.U. after   19 cycles
 SCF Done:  E(RB3LYP) =  -950.074234256     A.U. after   16 cycles
 SCF Done:  E(RB3LYP) =  -950.173009816     A.U. after   16 cycles
 SCF Done:  E(RB3LYP) =  -950.183867681     A.U. after   13 cycles
 SCF Done:  E(RB3LYP) =  -950.208093500     A.U. after   15 cycles
 SCF Done:  E(RB3LYP) =  -950.426794198     A.U. after   12 cycles
 SCF Done:  E(RB3LYP) =  -950.426841177     A.U. after   12 cycles
 SCF Done:  E(RB3LYP) =  -950.426877869     A.U. after   11 cycles
 SCF Done:  E(RB3LYP) =  -950.426904054     A.U. after   11 cycles
 SCF Done:  E(RB3LYP) =  -950.426922181     A.U. after   11 cycles
 SCF Done:  E(RB3LYP) =  -950.426937939     A.U. after   10 cycles
 SCF Done:  E(RB3LYP) =  -950.426943171     A.U. after    9 cycles
 SCF Done:  E(RB3LYP) =  -950.426944127     A.U. after    9 cycles
 SCF Done:  E(RB3LYP) =  -950.426944368     A.U. after    8 cycles
 Optimization completed.
    -- Stationary point found.
 Normal termination of Gaussian 16 at Sat May 20 10:00:21 2023.

 ----------------------------------------------------------------------
 #N Geom=AllCheck Guess=TCheck SCRF=Check GenChk RB3LYP/6-31G(2df,p) Fr
 eq
 ----------------------------------------------------------------------

 Structure from the checkpoint file:  "OdCSC1dCCdCCdCCqdOrCdN1.chk"
 -------------------
 Title Card Required
 -------------------
 Charge =  0 Multiplicity = 1

                         Standard orientation:
 ---------------------------------------------------------------------
 Center     Atomic      Atomic             Coordinates (Angstroms)
 Number     Number       Type             X           Y           Z
 ---------------------------------------------------------------------
      1          8           0        4.828713    1.581570    0.000453
      2          6           0        5.159583    0.429488    0.000210
      3         16           0        4.048646   -0.981120    0.000127
      4          6           0        1.323663   -0.795292   -0.000695
      5          6           0        2.509748   -0.155849    0.000840
      6          6           0        0.061248   -0.129533   -0.000597
      7          6           0       -0.496727    1.096691   -0.000309
      8          6           0       -1.828056    0.337851   -0.000616
      9          6           0       -3.223551    0.710183   -0.000645
     10          6           0       -5.636423    0.276365    0.000310
     11          8           0       -6.591467   -0.466172    0.001133
     12          6           0       -4.238300   -0.174681    0.000317
     13          7           0       -1.304324   -0.851265   -0.000789
     14          1           0        6.206773    0.080986    0.000335
     15          1           0        2.601406    0.926218    0.002305
     16          1           0        1.277759   -1.880663   -0.002251
     17          1           0       -0.156799    2.122008   -0.001045
     18          1           0       -4.053691   -1.244708    0.001307
     19          1           0       -3.446243    1.775537   -0.001707
     20          1           0       -5.762361    1.382888   -0.001030
 ---------------------------------------------------------------------

 SCF Done:  E(RB3LYP) =  -950.426944368     A.U. after    1 cycles

 The electronic state is 1-A.
 Alpha  occ. eigenvalues --  -88.92468 -19.17482 -19.14221 -14.33340 -10.31942
 Alpha  occ. eigenvalues --  -10.27524 -10.25760 -10.24580 -10.24262 -10.22855
 Alpha  occ. eigenvalues --  -10.21977 -10.21695 -10.20419  -7.98843  -5.95226
 Alpha  occ. eigenvalues --   -5.94864  -5.94578  -1.08403  -1.04705  -0.97374
 Alpha  occ. eigenvalues --   -0.85031  -0.82339  -0.77963  -0.71602  -0.69721
 Alpha  occ. eigenvalues --   -0.65818  -0.59619  -0.58357  -0.56030  -0.53003
 Alpha  occ. eigenvalues --   -0.50696  -0.49276  -0.48488  -0.47159  -0.45889
 Alpha  occ. eigenvalues --   -0.43561  -0.43401  -0.42081  -0.41928  -0.40077
 Alpha  occ. eigenvalues --   -0.39699  -0.38355  -0.36127  -0.35590  -0.31099
 Alpha  occ. eigenvalues --   -0.29073  -0.27806  -0.26838  -0.26033  -0.20639
 Alpha virt. eigenvalues --   -0.11970  -0.07022  -0.03702  -0.00289   0.01466
 Alpha virt. eigenvalues --    0.05618   0.06565   0.09046   0.10708   0.11199
 Alpha virt. eigenvalues --    0.12335   0.12928   0.14039   0.14748   0.15833

 Mulliken charges:
               1
     1  O   -0.220227
     2  C    0.089091
     3  S   -0.035169
     4  C   -0.207358
     5  C   -0.104253
     6  C    0.428957
     7  C   -0.436970
     8  C    0.375605
     9  C   -0.175248
    10  C    0.153943
    11  O   -0.264928
    12  C   -0.144048
    13  N   -0.344831
    14  H    0.135820
    15  H    0.160833
    16  H    0.129762
    17  H    0.123333
    18  H    0.145420
    19  H    0.115460
    20  H    0.074809
 Sum of Mulliken charges =  -0.00000

 Dipole moment (field-independent basis, Debye):
    X=              4.0506    Y=              1.6476    Z=             -0.0020  Tot=              4.3728
 Quadrupole moment (field-independent basis, Debye-Ang):
   XX=            -94.2212   YY=            -80.9343   ZZ=            -81.6751
   XY=            -16.8932   XZ=              0.0107   YZ=             -0.0014

  Exact polarizability: 321.153  -3.439 116.859   0.000  -0.004  57.083
 Approx polarizability: 445.800  -4.967 227.990  -0.009   0.002  95.827

                      1                      2                      3
                      A                      A                      A
 Frequencies --     17.7556                43.9721                51.8672
 Red. masses --      7.2183                 8.6012                 6.9253
 Frc consts  --      0.0013                 0.0098                 0.0110
 IR Inten    --      2.2964                 1.2470                 5.5140

                      4                      5                      6
                      A                      A                      A
 Frequencies --     80.3922                91.4368               127.1005
 Red. masses --      3.0717                 8.6497                 3.1566
 Frc consts  --      0.0117                 0.0426                 0.0300
 IR Inten    --      2.8558                 1.9624                 3.2402

                      7                      8                      9
                      A                      A                      A
 Frequencies --    148.0349               176.2150               186.5911
 Red. masses --      2.3903                 3.4801                 8.0265
 Frc consts  --      0.0309                 0.0637                 0.1646
 IR Inten    --      1.5690                 3.1568                 8.5888

                     10                     11                     12
                      A                      A                      A
 Frequencies --    231.7212               252.2434               296.2838
 Red. masses --      8.7298                 2.7759                 4.0190
 Frc consts  --      0.2762                 0.1041                 0.2079
 IR Inten    --      2.2424                 8.1234                 2.1059

                     13                     14                     15
                      A                      A                      A
 Frequencies --    304.0698               384.9761               419.4683
 Red. masses --      5.6530                 7.0217                 5.5458
 Frc consts  --      0.3079                 0.6131                 0.5749
 IR Inten    --     15.1497                 2.6791                 2.7385

                     16                     17                     18
                      A                      A                      A
 Frequencies --    530.0570               536.5315               581.8797
 Red. masses --      3.0741                10.3694                 4.1331
 Frc consts  --      0.5089                 1.7587                 0.8245
 IR Inten    --      5.4500                19.0177                 7.2494

                     19                     20                     21
                      A                      A                      A
 Frequencies --    617.8167               712.1122               718.2462
 Red. masses --      1.6990                 5.2253                 2.9121
 Frc consts  --      0.3821                 1.5612                 0.8851
 IR Inten    --      1.9690                96.7265                24.8562

                     22                     23                     24
                      A                      A                      A
 Frequencies --    746.5855               829.1627               853.1956
 Red. masses --      5.7972                 6.8171                 2.1293
 Frc consts  --      1.9038                 2.7614                 0.9132
 IR Inten    --    187.7372               128.9613                 0.1628

                     25                     26                     27
                      A                      A                      A
 Frequencies --    871.7810               877.3405               926.6919
 Red. masses --      3.3958                 1.8005                 1.5350
 Frc consts  --      1.5206                 0.8166                 0.7766
 IR Inten    --      4.5767                 1.3375                 0.6027

                     28                     29                     30
                      A                      A                      A
 Frequencies --    969.4289              1001.2687              1028.4819
 Red. masses --      6.5900                 1.0884                 1.3446
 Frc consts  --      3.6490                 0.6429                 0.8380
 IR Inten    --      6.1645                31.6427                19.8572

                     31                     32                     33
                      A                      A                      A
 Frequencies --   1037.7338              1057.8179              1111.5654
 Red. masses --      1.4056                 3.2479                 2.2202
 Frc consts  --      0.8918                 2.1413                 1.6162
 IR Inten    --      7.4787                15.3052                56.2657

                     34                     35                     36
                      A                      A                      A
 Frequencies --   1134.0513              1221.7870              1252.1943
 Red. masses --      2.4890                 1.4229                 1.2698
 Frc consts  --      1.8860                 1.2514                 1.1731
 IR Inten    --    188.1276                 7.1535                14.8594

                     37                     38                     39
                      A                      A                      A
 Frequencies --   1294.7361              1317.2342              1333.5907
 Red. masses --      1.8676                 1.4416                 1.8681
 Frc consts  --      1.8446                 1.4738                 1.9575
 IR Inten    --    147.7588                 4.6020                24.3925

                     40                     41                     42
                      A                      A                      A
 Frequencies --   1372.7946              1427.7624              1586.4864
 Red. masses --      1.1623                 1.2436                10.2833
 Frc consts  --      1.2905                 1.4936                15.2496
 IR Inten    --     23.4196                17.0636                12.9505

                     43                     44                     45
                      A                      A                      A
 Frequencies --   1619.2234              1656.3207              1670.8425
 Red. masses --      6.0526                 6.9631                 6.0664
 Frc consts  --      9.3499                11.2549                 9.9782
 IR Inten    --    138.6209                 3.7253                 9.1043

                     46                     47                     48
                      A                      A                      A
 Frequencies --   1784.2887              1786.9097              2874.6231
 Red. masses --     10.0019                10.0252                 1.0823
 Frc consts  --     18.7614                18.8603                 5.2696
 IR Inten    --    671.5038                79.0706               127.0299

                     49                     50                     51
                      A                      A                      A
 Frequencies --   2981.7865              3152.9668              3173.2280
 Red. masses --      1.0907                 1.0883                 1.0910
 Frc consts  --      5.7137                 6.3745                 6.4724
 IR Inten    --     59.7173                 8.6631                 3.5376

                     52                     53                     54
                      A                      A                      A
 Frequencies --   3182.7903              3193.9039              3231.8442
 Red. masses --      1.0878                 1.0907                 1.1014
 Frc consts  --      6.4927                 6.5557                 6.7780
 IR Inten    --     22.1351                 0.0882                14.1351

 - Thermochemistry -
 -------------------
 Temperature   298.150 Kelvin.  Pressure   1.00000 Atm.
 Atom     1 has atomic number  8 and mass  15.99491

 Molecular mass:   193.01975 amu.
 Principal axes and moments of inertia in atomic units:
                           1         2         3
     Eigenvalues --   476.39186********************
           X            0.99999  -0.00321   0.00000
           Y            0.00321   0.99999  -0.00001
           Z           -0.00000   0.00001   1.00000
 This molecule is an asymmetric top.
 Rotational symmetry number  1.
 Warning -- assumption of classical behavior for rotation
           may cause significant error
 Rotational temperatures (Kelvin)      0.18181     0.00835     0.00798
 Rotational constants (GHZ):           3.78835     0.17393     0.16629
 Zero-point vibrational energy     359293.5 (Joules/Mol)
                                   85.87322 (Kcal/Mol)
 Warning -- explicit consideration of  19 degrees of freedom as
           vibrations may cause significant error
 Vibrational temperatures:     25.55    63.27    74.63   115.67   131.56
          (Kelvin)            182.87   212.99   253.53   268.46   333.40
                              362.92   426.29   437.49   553.89   603.52
                              762.63   771.95   837.20   888.90  1024.57
                             1033.40  1074.17  1192.98  1227.56  1254.30
                             1262.30  1333.30  1394.79  1440.60  1479.76
                             1493.07  1521.96  1599.29  1631.65  1757.88
                             1801.63  1862.84  1895.21  1918.74  1975.15
                             2054.23  2282.60  2329.70  2383.08  2403.97
                             2567.19  2570.96  4135.94  4290.13  4536.42
                             4565.57  4579.33  4595.32  4649.90

 Zero-point correction=                           0.136848 (Hartree/Particle)
 Thermal correction to Energy=                    0.150391
 Thermal correction to Enthalpy=                  0.151335
 Thermal correction to Gibbs Free Energy=         0.093692
 Sum of electronic and zero-point Energies=           -950.290097
 Sum of electronic and thermal Energies=              -950.276554
 Sum of electronic and thermal Enthalpies=            -950.275609
 Sum of electronic and thermal Free Energies=         -950.333252

                     E (Thermal)             CV                S
                      KCal/Mol        Cal/Mol-Kelvin    Cal/Mol-Kelvin
 Total                   94.372             46.234            121.319
 Electronic               0.000              0.000              0.000
 Translational            0.889              2.981             41.678
 Rotational               0.889              2.981             32.351
 Vibrational             92.594             40.272             47.290
 Vibration     1          0.593              1.986              6.871
 Vibration     2          0.595              1.980              5.072
 Vibration     3          0.596              1.977              4.745
 Vibration     4          0.600              1.962              3.881
 Vibration     5          0.602              1.955              3.629
 Vibration     6          0.611              1.926              2.989
 Vibration     7          0.617              1.905              2.697
 Vibration     8          0.628              1.872              2.368
 Vibration     9          0.632              1.858              2.261
 Vibration    10          0.653              1.792              1.866
 Vibration    11          0.664              1.759              1.715
 Vibration    12          0.690              1.681              1.438
 Vibration    13          0.695              1.666              1.394
 Vibration    14          0.754              1.502              1.020
 Vibration    15          0.782              1.428              0.894
 Vibration    16          0.885              1.183              0.587
 Vibration    17          0.892              1.169              0.573
 Vibration    18          0.939              1.071              0.482
 Vibration    19          0.978              0.994              0.420

                           ! Non-Optimized Parameters !
 Normal termination of Gaussian 16 at Sat May 20 10:35:45 2023.
