 Gaussian 16, Revision A.03,
 Gaussian 16:  ES64L-G16RevA.03 25-Dec-2016

 -----------------------------
 # opt freq b3lyp/6-31g(2df,p)
 -----------------------------

 -------------------
 Title Card Required
 -------------------
 Symbolic Z-matrix:
 Charge =  0 Multiplicity = 1

 SCF Done:  E(RB3LYP) =  -960.958138120     A.U. after   31 cycles
 SCF Done:  E(RB3LYP) =  -961.025220184     A.U. after   21 cycles
 SCF Done:  E(RB3LYP) =  -961.118206331     A.U. after   19 cycles
 SCF Done:  E(RB3LYP) =  -961.214906869     A.U. after   18 cycles
 SCF Done:  E(RB3LYP) =  -961.266324936     A.U. after   19 cycles
 SCF Done:  E(RB3LYP) =  -961.288114370     A.U. after   17 cycles
 SCF Done:  E(RB3LYP) =  -961.304237122     A.U. after   17 cycles
 SCF Done:  E(RB3LYP) =  -961.310015995     A.U. after   16 cycles
 SCF Done:  E(RB3LYP) =  -961.311180383     A.U. after   16 cycles
 SCF Done:  E(RB3LYP) =  -961.312871031     A.U. after   14 cycles
 SCF Done:  E(RB3LYP) =  -961.346560015     A.U. after   15 cycles
 SCF Done:  E(RB3LYP) =  -961.346607463     A.U. after   15 cycles
 SCF Done:  E(RB3LYP) =  -961.346642468     A.U. after   13 cycles
 SCF Done:  E(RB3LYP) =  -961.346681342     A.U. after   13 cycles
 SCF Done:  E(RB3LYP) =  -961.346683813     A.U. after   12 cycles
 SCF Done:  E(RB3LYP) =  -961.346683538     A.U. after   12 cycles
 SCF Done:  E(RB3LYP) =  -961.346684854     A.U. after   12 cycles
 SCF Done:  E(RB3LYP) =  -961.346684906     A.U. after   10 cycles
 SCF Done:  E(RB3LYP) =  -961.346684990     A.U. after   10 cycles
 Optimization completed.
    -- Stationary point found.
 Normal termination of Gaussian 16 at Wed May 17 13:33:16 2023.

 ----------------------------------------------------------------------
 #N Geom=AllCheck Guess=TCheck SCRF=Check GenChk RB3LYP/6-31G(2df,p) Fr
 eq
 ----------------------------------------------------------------------

 Structure from the checkpoint file:  "OdNC1dC2NdNNdC2SCdCCdC1.chk"
 -------------------
 Title Card Required
 -------------------
 Charge =  0 Multiplicity = 1

                         Standard orientation:
 ---------------------------------------------------------------------
 Center     Atomic      Atomic             Coordinates (Angstroms)
 Number     Number       Type             X           Y           Z
 ---------------------------------------------------------------------
      1          8           0        3.035612   -0.056327    1.015655
      2          7           0        2.606594   -0.778518    0.164899
      3          6           0        1.116819   -0.762923    0.007377
      4          6           0        0.547929    0.491752   -0.122165
      5          7           0        1.406359    1.555331   -0.471081
      6          7           0        0.710964    2.599110   -0.681753
      7          7           0       -0.648405    2.400301   -0.403739
      8          6           0       -0.784060    1.147088   -0.085803
      9         16           0       -2.291909    0.595495    0.619122
     10          6           0       -1.833686   -1.096023    0.571112
     11          6           0       -1.586191   -1.715548   -0.598798
     12          6           0       -0.467207   -2.623056   -0.665062
     13          6           0        0.732550   -2.138478   -0.254560
     14          1           0       -1.499191   -1.526234    1.509876
     15          1           0       -2.073271   -1.394312   -1.517372
     16          1           0       -0.526774   -3.611691   -1.111634
     17          1           0        1.599380   -2.795504   -0.282961
 ---------------------------------------------------------------------

 SCF Done:  E(RB3LYP) =  -961.346684990     A.U. after    1 cycles

 The electronic state is 1-A.
 Alpha  occ. eigenvalues --  -88.93623 -19.23056 -14.47308 -14.39464 -14.36844
 Alpha  occ. eigenvalues --  -14.35112 -10.28672 -10.27719 -10.26761 -10.25904
 Alpha  occ. eigenvalues --  -10.25427 -10.25103 -10.24531  -7.99734  -5.96187
 Alpha  occ. eigenvalues --   -5.95823  -5.95387  -1.19152  -1.08087  -0.90458
 Alpha  occ. eigenvalues --   -0.89970  -0.85148  -0.83358  -0.76557  -0.74115
 Alpha  occ. eigenvalues --   -0.67311  -0.63387  -0.61518  -0.59073  -0.56639
 Alpha  occ. eigenvalues --   -0.53974  -0.51880  -0.50076  -0.48425  -0.47775
 Alpha  occ. eigenvalues --   -0.46758  -0.44897  -0.44366  -0.42756  -0.40008
 Alpha  occ. eigenvalues --   -0.36632  -0.35638  -0.33963  -0.31116  -0.28983
 Alpha  occ. eigenvalues --   -0.28249  -0.26789  -0.25756  -0.24613
 Alpha virt. eigenvalues --   -0.15166  -0.09547  -0.07131  -0.02122   0.01082
 Alpha virt. eigenvalues --    0.01811   0.05773   0.06547   0.08257   0.09887
 Alpha virt. eigenvalues --    0.12797   0.13406   0.15189   0.18769   0.20417

 Mulliken charges:
               1
     1  O   -0.139973
     2  N   -0.012632
     3  C    0.171748
     4  C    0.275976
     5  N   -0.217509
     6  N   -0.083375
     7  N   -0.262875
     8  C    0.156920
     9  S   -0.020823
    10  C   -0.124244
    11  C   -0.103490
    12  C   -0.113621
    13  C   -0.104509
    14  H    0.148744
    15  H    0.153722
    16  H    0.138888
    17  H    0.137055
 Sum of Mulliken charges =  -0.00000

 Dipole moment (field-independent basis, Debye):
    X=             -2.9199    Y=             -7.1545    Z=              0.2622  Tot=              7.7319
 Quadrupole moment (field-independent basis, Debye-Ang):
   XX=            -85.5274   YY=            -82.8557   ZZ=            -77.1253
   XY=             -0.0418   XZ=              0.5578   YZ=              4.4902

  Exact polarizability: 147.557  -2.830 158.714  -1.323   4.291  74.951
 Approx polarizability: 280.843  -5.167 343.564  -5.420   7.927 143.331
