 Gaussian 16, Revision A.03,
 Gaussian 16:  ES64L-G16RevA.03 25-Dec-2016

 -----------------------------
 # opt freq b3lyp/6-31g(2df,p)
 -----------------------------

 -------------------
 Title Card Required
 -------------------
 Symbolic Z-matrix:
 Charge =  0 Multiplicity = 1

 SCF Done:  E(RB3LYP) =  -951.615229804     A.U. after   19 cycles
 SCF Done:  E(RB3LYP) =  -951.625199942     A.U. after   15 cycles
 SCF Done:  E(RB3LYP) =  -951.629230217     A.U. after   16 cycles
 SCF Done:  E(RB3LYP) =  -951.629671963     A.U. after   14 cycles
 SCF Done:  E(RB3LYP) =  -951.629772733     A.U. after   13 cycles
 SCF Done:  E(RB3LYP) =  -951.630106794     A.U. after   14 cycles
 SCF Done:  E(RB3LYP) =  -951.630590072     A.U. after   17 cycles
 SCF Done:  E(RB3LYP) =  -951.631633558     A.U. after   13 cycles
 SCF Done:  E(RB3LYP) =  -951.632448324     A.U. after   14 cycles
 SCF Done:  E(RB3LYP) =  -951.632682107     A.U. after   14 cycles
 SCF Done:  E(RB3LYP) =  -951.633944676     A.U. after   15 cycles
 SCF Done:  E(RB3LYP) =  -951.634539132     A.U. after   14 cycles
 SCF Done:  E(RB3LYP) =  -951.635788087     A.U. after   14 cycles
 SCF Done:  E(RB3LYP) =  -951.636100369     A.U. after   14 cycles
 SCF Done:  E(RB3LYP) =  -951.636132201     A.U. after   12 cycles
 SCF Done:  E(RB3LYP) =  -951.636136076     A.U. after   10 cycles
 SCF Done:  E(RB3LYP) =  -951.636137553     A.U. after   11 cycles
 SCF Done:  E(RB3LYP) =  -951.636137811     A.U. after   10 cycles
 SCF Done:  E(RB3LYP) =  -951.636137850     A.U. after    9 cycles
 Optimization completed.
    -- Stationary point found.
 Normal termination of Gaussian 16 at Tue May 16 01:35:47 2023.

 ----------------------------------------------------------------------
 #N Geom=AllCheck Guess=TCheck SCRF=Check GenChk RB3LYP/6-31G(2df,p) Fr
 eq
 ----------------------------------------------------------------------

 Structure from the checkpoint file:  "OdNCCdCCOC1dCCqdSrCdC1.chk"
 -------------------
 Title Card Required
 -------------------
 Charge =  0 Multiplicity = 1

                         Standard orientation:
 ---------------------------------------------------------------------
 Center     Atomic      Atomic             Coordinates (Angstroms)
 Number     Number       Type             X           Y           Z
 ---------------------------------------------------------------------
      1          8           0        5.878336    0.985927   -0.581826
      2          7           0        5.239745    0.012521   -0.870931
      3          6           0        4.561193   -0.625211    0.322905
      4          6           0        3.118876   -0.862070    0.005161
      5          6           0        2.107641   -0.411354    0.742864
      6          6           0        0.672144   -0.697625    0.445270
      7          8           0       -0.036965    0.555100    0.405040
      8          6           0       -1.348792    0.492018    0.209207
      9          6           0       -2.182434   -0.571151    0.023594
     10          6           0       -3.515737   -0.030518   -0.138474
     11         16           0       -4.918796   -0.838142   -0.391226
     12          6           0       -3.402905    1.460262   -0.033408
     13          6           0       -2.117076    1.769109    0.172321
     14          1           0        4.719335   -0.004684    1.209959
     15          1           0        5.090935   -1.582346    0.438941
     16          1           0        2.920482   -1.437497   -0.897159
     17          1           0        2.296357    0.176394    1.638811
     18          1           0        0.216918   -1.319788    1.228424
     19          1           0        0.552206   -1.213460   -0.514581
     20          1           0       -1.948565   -1.621910   -0.008584
     21          1           0       -4.255544    2.117052   -0.118558
     22          1           0       -1.658023    2.739890    0.296519
 ---------------------------------------------------------------------

 SCF Done:  E(RB3LYP) =  -951.636137850     A.U. after    1 cycles

 The electronic state is 1-A.
 Alpha  occ. eigenvalues --  -88.85436 -19.21429 -19.21033 -14.45734 -10.27275
 Alpha  occ. eigenvalues --  -10.26986 -10.24882 -10.23560 -10.22240 -10.21767
 Alpha  occ. eigenvalues --  -10.20851 -10.20202 -10.18107  -7.91913  -5.88263
 Alpha  occ. eigenvalues --   -5.88178  -5.87409  -1.17357  -1.10481  -0.88309
 Alpha  occ. eigenvalues --   -0.84824  -0.79993  -0.76226  -0.72836  -0.71527
 Alpha  occ. eigenvalues --   -0.64065  -0.61921  -0.59247  -0.57037  -0.54836
 Alpha  occ. eigenvalues --   -0.52487  -0.51180  -0.50724  -0.50073  -0.47411
 Alpha  occ. eigenvalues --   -0.46406  -0.44945  -0.42873  -0.42283  -0.40265
 Alpha  occ. eigenvalues --   -0.39882  -0.39518  -0.37538  -0.37275  -0.35314
 Alpha  occ. eigenvalues --   -0.34853  -0.29585  -0.27037  -0.23226  -0.22684
 Alpha  occ. eigenvalues --   -0.21844
 Alpha virt. eigenvalues --   -0.10970  -0.09283  -0.01927   0.05074   0.07397
 Alpha virt. eigenvalues --    0.08472   0.08769   0.09939   0.10303   0.11960
 Alpha virt. eigenvalues --    0.12872   0.13818   0.14682   0.15457   0.15677

 Mulliken charges:
               1
     1  O   -0.186106
     2  N    0.049112
     3  C   -0.187058
     4  C   -0.048012
     5  C   -0.046984
     6  C   -0.136447
     7  O   -0.247281
     8  C    0.395357
     9  C   -0.340769
    10  C    0.255856
    11  S   -0.311974
    12  C   -0.131001
    13  C   -0.187451
    14  H    0.121505
    15  H    0.141166
    16  H    0.112151
    17  H    0.110706
    18  H    0.132969
    19  H    0.129588
    20  H    0.116306
    21  H    0.132950
    22  H    0.125418
 Sum of Mulliken charges =  -0.00000

 Dipole moment (field-independent basis, Debye):
    X=              3.1265    Y=             -0.5883    Z=              1.8709  Tot=              3.6907
 Quadrupole moment (field-independent basis, Debye-Ang):
   XX=           -107.4871   YY=            -78.2704   ZZ=            -82.6988
   XY=            -15.0323   XZ=              5.2613   YZ=              0.4587

  Exact polarizability: 231.379  22.443 114.721   6.047   7.033  79.067
 Approx polarizability: 352.273  74.606 205.211  18.034  21.045 133.362

                      1                      2                      3
                      A                      A                      A
 Frequencies --     21.1184                27.5429                58.4892
 Red. masses --      9.9503                 7.2837                 5.5619
 Frc consts  --      0.0026                 0.0033                 0.0112
 IR Inten    --      2.0270                 1.6985                 0.6771

                      4                      5                      6
                      A                      A                      A
 Frequencies --     68.0432               117.1805               135.0330
 Red. masses --      5.3099                 5.6328                 2.8413
 Frc consts  --      0.0145                 0.0456                 0.0305
 IR Inten    --      1.1727                 0.6403                 1.0149

                      7                      8                      9
                      A                      A                      A
 Frequencies --    151.5208               176.6847               210.6205
 Red. masses --      5.9484                 3.6915                 2.8432
 Frc consts  --      0.0805                 0.0679                 0.0743
 IR Inten    --      0.5774                 3.5056                 4.6264

                     10                     11                     12
                      A                      A                      A
 Frequencies --    281.4614               321.0926               333.1723
 Red. masses --      6.6569                 4.8515                 4.2673
 Frc consts  --      0.3107                 0.2947                 0.2791
 IR Inten    --      0.5603                 0.2938                 0.5271

                     13                     14                     15
                      A                      A                      A
 Frequencies --    401.2384               453.9430               488.7257
 Red. masses --      3.6540                 3.2944                 4.3646
 Frc consts  --      0.3466                 0.4000                 0.6142
 IR Inten    --      4.5788                 1.3668                 0.6382

                     16                     17                     18
                      A                      A                      A
 Frequencies --    517.9820               596.4853               628.3711
 Red. masses --      5.6859                 3.5202                 2.1817
 Frc consts  --      0.8988                 0.7379                 0.5075
 IR Inten    --      0.5453                 2.1534                 7.2526

                     19                     20                     21
                      A                      A                      A
 Frequencies --    677.9089               698.4199               724.7508
 Red. masses --      5.2241                 5.4893                 1.2686
 Frc consts  --      1.4145                 1.5776                 0.3926
 IR Inten    --     99.2797                 0.0310                 0.4965

                     22                     23                     24
                      A                      A                      A
 Frequencies --    771.7408               828.4144               861.8649
 Red. masses --      2.4962                 1.8036                 2.1490
 Frc consts  --      0.8759                 0.7293                 0.9405
 IR Inten    --     15.0624                55.3125                22.3100

                     25                     26                     27
                      A                      A                      A
 Frequencies --    901.7206               915.0558               935.9381
 Red. masses --      5.0969                 2.4750                 1.3024
 Frc consts  --      2.4417                 1.2210                 0.6722
 IR Inten    --      7.6721                66.3040                 0.0843

                     28                     29                     30
                      A                      A                      A
 Frequencies --    951.6747               992.7694              1006.5790
 Red. masses --      2.5431                 2.7543                 2.2971
 Frc consts  --      1.3570                 1.5994                 1.3713
 IR Inten    --      4.3050                64.8482                63.1690

                     31                     32                     33
                      A                      A                      A
 Frequencies --   1019.6343              1088.0125              1097.3036
 Red. masses --      1.1315                 1.1549                 2.7997
 Frc consts  --      0.6931                 0.8055                 1.9862
 IR Inten    --     33.0102                 3.7159                 3.4317

                     34                     35                     36
                      A                      A                      A
 Frequencies --   1132.2062              1152.2269              1162.9539
 Red. masses --      5.1785                 1.5207                 1.6352
 Frc consts  --      3.9111                 1.1895                 1.3030
 IR Inten    --     37.5126                23.2638                51.2115

                     37                     38                     39
                      A                      A                      A
 Frequencies --   1177.3762              1245.5912              1272.5747
 Red. masses --      2.0761                 1.1633                 1.2757
 Frc consts  --      1.6957                 1.0634                 1.2172
 IR Inten    --    185.4450                 3.7918                57.0064

                     40                     41                     42
                      A                      A                      A
 Frequencies --   1287.3238              1325.5653              1334.2209
 Red. masses --      1.9120                 1.3404                 1.5796
 Frc consts  --      1.8669                 1.3877                 1.6568
 IR Inten    --    147.9592                25.8507                82.7492

                     43                     44                     45
                      A                      A                      A
 Frequencies --   1347.3342              1381.5962              1419.8511
 Red. masses --      2.4802                 2.2506                 1.8400
 Frc consts  --      2.6527                 2.5311                 2.1856
 IR Inten    --     72.2925               246.7361                 2.4896

                     46                     47                     48
                      A                      A                      A
 Frequencies --   1449.0500              1498.1752              1581.4376
 Red. masses --      1.1132                 1.1019                 7.0572
 Frc consts  --      1.3772                 1.4571                10.3989
 IR Inten    --      6.5406                17.0131               288.7744

                     49                     50                     51
                      A                      A                      A
 Frequencies --   1637.8862              1680.9005              1746.9673
 Red. masses --      6.3979                12.6970                 6.5178
 Frc consts  --     10.1124                21.1367                11.7199
 IR Inten    --    260.1224               119.1069                 1.3413

                     52                     53                     54
                      A                      A                      A
 Frequencies --   3004.5485              3007.5869              3063.8990
 Red. masses --      1.0609                 1.0600                 1.1020
 Frc consts  --      5.6425                 5.6490                 6.0949
 IR Inten    --     12.8535                12.3389                14.5221

                     55                     56                     57
                      A                      A                      A
 Frequencies --   3095.2174              3151.6956              3159.2146
 Red. masses --      1.1007                 1.0920                 1.0865
 Frc consts  --      6.2132                 6.3912                 6.3893
 IR Inten    --      8.0580                 3.1105                14.7017

                     58                     59                     60
                      A                      A                      A
 Frequencies --   3232.3495              3261.0781              3271.2667
 Red. masses --      1.0887                 1.1056                 1.0966
 Frc consts  --      6.7021                 6.9272                 6.9139
 IR Inten    --      1.6863                 0.9964                 5.8364

 - Thermochemistry -
 -------------------
 Temperature   298.150 Kelvin.  Pressure   1.00000 Atm.
 Atom     1 has atomic number  8 and mass  15.99491

 Molecular mass:   195.03540 amu.
 Principal axes and moments of inertia in atomic units:
                           1         2         3
     Eigenvalues --   709.566809589.867449999.97062
           X            0.99995  -0.00925   0.00351
           Y            0.00924   0.99995   0.00299
           Z           -0.00354  -0.00296   0.99999
 This molecule is an asymmetric top.
 Rotational symmetry number  1.
 Warning -- assumption of classical behavior for rotation
           may cause significant error
 Rotational temperatures (Kelvin)      0.12207     0.00903     0.00866
 Rotational constants (GHZ):           2.54344     0.18819     0.18047
 Zero-point vibrational energy     427907.7 (Joules/Mol)
                                  102.27240 (Kcal/Mol)
 Warning -- explicit consideration of  17 degrees of freedom as
           vibrations may cause significant error
 Vibrational temperatures:     30.38    39.63    84.15    97.90   168.60
          (Kelvin)            194.28   218.00   254.21   303.04   404.96
                              461.98   479.36   577.29   653.12   703.17
                              745.26   858.21   904.09   975.36  1004.87
                             1042.75  1110.36  1191.90  1240.03  1297.37
                             1316.56  1346.61  1369.25  1428.37  1448.24
                             1467.03  1565.41  1578.78  1628.99  1657.80
                             1673.23  1693.98  1792.13  1830.95  1852.17
                             1907.19  1919.65  1938.51  1987.81  2042.85
                             2084.86  2155.54  2275.34  2356.55  2418.44
                             2513.50  4322.88  4327.25  4408.27  4453.33
                             4534.59  4545.41  4650.63  4691.96  4706.62

 Zero-point correction=                           0.162981 (Hartree/Particle)
 Thermal correction to Energy=                    0.175999
 Thermal correction to Enthalpy=                  0.176943
 Thermal correction to Gibbs Free Energy=         0.120191
 Sum of electronic and zero-point Energies=           -951.473156
 Sum of electronic and thermal Energies=              -951.460139
 Sum of electronic and thermal Enthalpies=            -951.459195
 Sum of electronic and thermal Free Energies=         -951.515947

                     E (Thermal)             CV                S
                      KCal/Mol        Cal/Mol-Kelvin    Cal/Mol-Kelvin
 Total                  110.441             45.864            119.444
 Electronic               0.000              0.000              0.000
 Translational            0.889              2.981             41.709
 Rotational               0.889              2.981             32.587
 Vibrational            108.663             39.902             45.148
 Vibration     1          0.593              1.985              6.526
 Vibration     2          0.593              1.984              5.999
 Vibration     3          0.596              1.974              4.508
 Vibration     4          0.598              1.969              4.209
 Vibration     5          0.608              1.935              3.146
 Vibration     6          0.613              1.918              2.873
 Vibration     7          0.619              1.901              2.653
 Vibration     8          0.628              1.871              2.363
 Vibration     9          0.643              1.825              2.038
 Vibration    10          0.681              1.708              1.525
 Vibration    11          0.707              1.633              1.305
 Vibration    12          0.715              1.609              1.245
 Vibration    13          0.767              1.467              0.958
 Vibration    14          0.812              1.352              0.784
 Vibration    15          0.845              1.275              0.687
 Vibration    16          0.873              1.210              0.615
 Vibration    17          0.954              1.039              0.456

 Optimization completed.
    -- Stationary point found.
 Normal termination of Gaussian 16 at Tue May 16 02:25:20 2023.
