 Gaussian 16, Revision A.03,
 Gaussian 16:  ES64L-G16RevA.03 25-Dec-2016

 -----------------------------
 # opt freq b3lyp/6-31g(2df,p)
 -----------------------------

 -------------------
 Title Card Required
 -------------------
 Symbolic Z-matrix:
 Charge =  0 Multiplicity = 1

 SCF Done:  E(RB3LYP) =  -548.656083095     A.U. after   17 cycles
 SCF Done:  E(RB3LYP) =  -548.689741274     A.U. after   16 cycles
 SCF Done:  E(RB3LYP) =  -548.691352079     A.U. after   11 cycles
 SCF Done:  E(RB3LYP) =  -548.697627970     A.U. after   14 cycles
 SCF Done:  E(RB3LYP) =  -548.714017423     A.U. after   15 cycles
 SCF Done:  E(RB3LYP) =  -548.714310137     A.U. after   11 cycles
 SCF Done:  E(RB3LYP) =  -548.713598730     A.U. after   16 cycles
 SCF Done:  E(RB3LYP) =  -548.716028942     A.U. after   14 cycles
 SCF Done:  E(RB3LYP) =  -548.716400762     A.U. after   11 cycles
 SCF Done:  E(RB3LYP) =  -548.717114081     A.U. after   13 cycles
 SCF Done:  E(RB3LYP) =  -548.730442690     A.U. after   12 cycles
 SCF Done:  E(RB3LYP) =  -548.730452007     A.U. after   12 cycles
 SCF Done:  E(RB3LYP) =  -548.730456460     A.U. after   11 cycles
 SCF Done:  E(RB3LYP) =  -548.730458193     A.U. after   10 cycles
 SCF Done:  E(RB3LYP) =  -548.730460466     A.U. after   10 cycles
 SCF Done:  E(RB3LYP) =  -548.730463034     A.U. after   11 cycles
 SCF Done:  E(RB3LYP) =  -548.730464493     A.U. after   11 cycles
 SCF Done:  E(RB3LYP) =  -548.730464925     A.U. after   10 cycles
 SCF Done:  E(RB3LYP) =  -548.730465005     A.U. after    9 cycles
 Optimization completed.
    -- Stationary point found.
 Normal termination of Gaussian 16 at Thu May 18 14:09:51 2023.

 ----------------------------------------------------------------------
 #N Geom=AllCheck Guess=TCheck SCRF=Check GenChk RB3LYP/6-31G(2df,p) Fr
 eq
 ----------------------------------------------------------------------

 Structure from the checkpoint file:  "OdNCdCC1dCC1dC1OC1dO.chk"
 -------------------
 Title Card Required
 -------------------
 Charge =  0 Multiplicity = 1

                         Standard orientation:
 ---------------------------------------------------------------------
 Center     Atomic      Atomic             Coordinates (Angstroms)
 Number     Number       Type             X           Y           Z
 ---------------------------------------------------------------------
      1          8           0       -3.913202   -1.630542   -0.000257
      2          7           0       -3.620263   -0.446387    0.000049
      3          6           0       -2.219911   -0.215734    0.000009
      4          6           0       -1.809695    1.070002    0.000182
      5          6           0       -0.441633    1.439243    0.000084
      6          6           0        0.513465    2.359951   -0.000165
      7          6           0        0.943025    1.003330    0.000068
      8          6           0        1.865878    0.075266    0.000160
      9          8           0        1.868507   -1.404161    0.000316
     10          6           0        3.043461   -0.675127   -0.000017
     11          8           0        4.205571   -0.889379   -0.000275
     12          1           0       -1.554943   -1.077421   -0.000168
     13          1           0       -2.560267    1.855431    0.000380
     14          1           0        0.802484    3.397767   -0.000760
 ---------------------------------------------------------------------

 SCF Done:  E(RB3LYP) =  -548.730465005     A.U. after    1 cycles

 The electronic state is 1-A.
 Alpha  occ. eigenvalues --  -19.19908 -19.19899 -19.15985 -14.44705 -10.33594
 Alpha  occ. eigenvalues --  -10.27940 -10.27744 -10.26719 -10.26162 -10.25753
 Alpha  occ. eigenvalues --  -10.25350  -1.15369  -1.12880  -1.05949  -0.96084
 Alpha  occ. eigenvalues --   -0.86146  -0.75967  -0.74089  -0.65013  -0.61779
 Alpha  occ. eigenvalues --   -0.61146  -0.56452  -0.51990  -0.51050  -0.48414
 Alpha  occ. eigenvalues --   -0.47163  -0.46747  -0.46356  -0.43571  -0.43414
 Alpha  occ. eigenvalues --   -0.42196  -0.40191  -0.35844  -0.35059  -0.32566
 Alpha  occ. eigenvalues --   -0.28672  -0.23577  -0.23546
 Alpha virt. eigenvalues --   -0.13729  -0.03968  -0.03117   0.02451   0.04204
 Alpha virt. eigenvalues --    0.08078   0.10438   0.10793   0.12971   0.15049
 Alpha virt. eigenvalues --    0.17429   0.18793   0.20419   0.23333   0.25950

 Mulliken charges:
               1
     1  O   -0.233097
     2  N    0.004184
     3  C    0.010379
     4  C   -0.221181
     5  C    0.267020
     6  C   -0.280741
     7  C    0.096451
     8  C    0.062611
     9  O   -0.265256
    10  C    0.386574
    11  O   -0.313998
    12  H    0.146625
    13  H    0.148718
    14  H    0.191711
 Sum of Mulliken charges =  -0.00000

 Dipole moment (field-independent basis, Debye):
    X=             -0.9285    Y=              5.2471    Z=             -0.0003  Tot=              5.3286
 Quadrupole moment (field-independent basis, Debye-Ang):
   XX=            -86.6997   YY=            -53.4100   ZZ=            -58.6146
   XY=              0.6408   XZ=              0.0000   YZ=             -0.0021

  Exact polarizability: 191.518  14.504 109.524  -0.000  -0.000  38.762
 Approx polarizability: 335.448  57.036 222.450   0.003   0.003  62.699

                      1                      2                      3
                      A                      A                      A
 Frequencies --     38.8441                71.0082                97.6082
 Red. masses --     12.3311                10.0473                 6.6204
 Frc consts  --      0.0110                 0.0298                 0.0372
 IR Inten    --      1.6073                 0.0319                 0.4523

                      4                      5                      6
                      A                      A                      A
 Frequencies --    138.2468               175.8075               217.5163
 Red. masses --      8.6511                 2.7014                11.1152
 Frc consts  --      0.0974                 0.0492                 0.3098
 IR Inten    --      0.4715                 1.8931                 0.4327

                      7                      8                      9
                      A                      A                      A
 Frequencies --    253.1846               285.6546               367.5093
 Red. masses --      9.0460                 4.0537                 6.0765
 Frc consts  --      0.3417                 0.1949                 0.4836
 IR Inten    --      1.8796                 2.2415                 7.7796

                     10                     11                     12
                      A                      A                      A
 Frequencies --    416.3894               460.5666               508.3090
 Red. masses --      8.5008                 5.9731                 7.7447
 Frc consts  --      0.8684                 0.7465                 1.1790
 IR Inten    --      0.1732                 0.1744               124.6079

                     13                     14                     15
                      A                      A                      A
 Frequencies --    555.7937               617.6469               638.6808
 Red. masses --      5.9571                 6.3431                 5.2639
 Frc consts  --      1.0842                 1.4257                 1.2651
 IR Inten    --      3.6433                 1.0449                54.0902

                     16                     17                     18
                      A                      A                      A
 Frequencies --    654.7127               718.6845               806.1174
 Red. masses --     11.6980                 7.4389                 1.4773
 Frc consts  --      2.9544                 2.2638                 0.5656
 IR Inten    --     16.2528                67.4899                14.0029

                     19                     20                     21
                      A                      A                      A
 Frequencies --    854.3682               895.9707               998.2463
 Red. masses --      5.4305                 1.8255                 1.1040
 Frc consts  --      2.3355                 0.8634                 0.6482
 IR Inten    --     11.4488                 1.8198                31.3872

                     22                     23                     24
                      A                      A                      A
 Frequencies --   1015.6741              1049.4091              1077.5074
 Red. masses --      1.4764                 6.9553                 7.2688
 Frc consts  --      0.8974                 4.5129                 4.9723
 IR Inten    --     43.7877               205.7096               270.3000

                     25                     26                     27
                      A                      A                      A
 Frequencies --   1171.1969              1236.4000              1257.5796
 Red. masses --      5.7584                 2.5747                 2.0109
 Frc consts  --      4.6539                 2.3190                 1.8738
 IR Inten    --     52.8573                40.0123                19.7358

                     28                     29                     30
                      A                      A                      A
 Frequencies --   1298.2135              1560.1758              1634.9204
 Red. masses --      1.4703                 8.7137                 7.1177
 Frc consts  --      1.4600                12.4968                11.2094
 IR Inten    --      4.8108               417.4849                18.1406

                     31                     32                     33
                      A                      A                      A
 Frequencies --   1671.7791              1910.0300              2095.1600
 Red. masses --      9.1928                 9.9385                12.3567
 Frc consts  --     15.1375                21.3624                31.9587
 IR Inten    --    127.4959                66.3306               857.8856

                     34                     35                     36
                      A                      A                      A
 Frequencies --   3159.5558              3180.3896              3282.6816
 Red. masses --      1.0935                 1.0890                 1.1154
 Frc consts  --      6.4317                 6.4899                 7.0816
 IR Inten    --      2.4428                 0.0859                16.0738

 - Thermochemistry -
 -------------------
 Temperature   298.150 Kelvin.  Pressure   1.00000 Atm.
 Atom     1 has atomic number  8 and mass  15.99491

 Molecular mass:   149.01129 amu.
 Principal axes and moments of inertia in atomic units:
                           1         2         3
     Eigenvalues --   818.733273729.499114548.23234
           X            1.00000  -0.00054  -0.00000
           Y            0.00054   1.00000  -0.00001
           Z            0.00000   0.00001   1.00000
 This molecule is an asymmetric top.
 Rotational symmetry number  1.
 Warning -- assumption of classical behavior for rotation
           may cause significant error
 Rotational temperatures (Kelvin)      0.10579     0.02322     0.01904
 Rotational constants (GHZ):           2.20431     0.48391     0.39680
 Zero-point vibrational energy     217550.1 (Joules/Mol)
                                   51.99573 (Kcal/Mol)
 Warning -- explicit consideration of  14 degrees of freedom as
           vibrations may cause significant error
 Vibrational temperatures:     55.89   102.17   140.44   198.91   252.95
          (Kelvin)            312.96   364.28   410.99   528.76   599.09
                              662.65   731.34   799.66   888.66   918.92
                              941.99  1034.03  1159.82  1229.25  1289.10
                             1436.25  1461.33  1509.87  1550.29  1685.09
                             1778.90  1809.38  1867.84  2244.74  2352.29
                             2405.32  2748.11  3014.47  4545.90  4575.87
                             4723.05

 Zero-point correction=                           0.082860 (Hartree/Particle)
 Thermal correction to Energy=                    0.093016
 Thermal correction to Enthalpy=                  0.093960
 Thermal correction to Gibbs Free Energy=         0.045669
 Sum of electronic and zero-point Energies=           -548.647605
 Sum of electronic and thermal Energies=              -548.637449
 Sum of electronic and thermal Enthalpies=            -548.636505
 Sum of electronic and thermal Free Energies=         -548.684796

                     E (Thermal)             CV                S
                      KCal/Mol        Cal/Mol-Kelvin    Cal/Mol-Kelvin
 Total                   58.369             35.224            101.638
 Electronic               0.000              0.000              0.000
 Translational            0.889              2.981             40.907
 Rotational               0.889              2.981             31.008
 Vibrational             56.591             29.263             29.723
 Vibration     1          0.594              1.981              5.317
 Vibration     2          0.598              1.968              4.125
 Vibration     3          0.603              1.951              3.502
 Vibration     4          0.614              1.915              2.828
 Vibration     5          0.628              1.872              2.372
 Vibration     6          0.646              1.814              1.980
 Vibration     7          0.664              1.757              1.708
 Vibration     8          0.683              1.700              1.500
 Vibration     9          0.740              1.539              1.090
 Vibration    10          0.780              1.435              0.904
 Vibration    11          0.818              1.338              0.764
 Vibration    12          0.863              1.232              0.638
 Vibration    13          0.911              1.127              0.532
 Vibration    14          0.977              0.995              0.420

 Optimization completed.
    -- Stationary point found.
 Normal termination of Gaussian 16 at Thu May 18 14:29:44 2023.
