 Gaussian 16, Revision A.03,
 Gaussian 16:  ES64L-G16RevA.03 25-Dec-2016

 -----------------------------
 # opt freq b3lyp/6-31g(2df,p)
 -----------------------------

 -------------------
 Title Card Required
 -------------------
 Symbolic Z-matrix:
 Charge =  0 Multiplicity = 1

 SCF Done:  E(RB3LYP) =  -1114.98728848     A.U. after   21 cycles
 SCF Done:  E(RB3LYP) =  -1115.03794598     A.U. after   15 cycles
 SCF Done:  E(RB3LYP) =  -1115.08934086     A.U. after   16 cycles
 SCF Done:  E(RB3LYP) =  -1115.10653555     A.U. after   15 cycles
 SCF Done:  E(RB3LYP) =  -1115.11600355     A.U. after   16 cycles
 SCF Done:  E(RB3LYP) =  -1115.12353479     A.U. after   15 cycles
 SCF Done:  E(RB3LYP) =  -1115.12832915     A.U. after   17 cycles
 SCF Done:  E(RB3LYP) =  -1115.13477256     A.U. after   16 cycles
 SCF Done:  E(RB3LYP) =  -1115.13957456     A.U. after   15 cycles
 SCF Done:  E(RB3LYP) =  -1115.14375717     A.U. after   15 cycles
 SCF Done:  E(RB3LYP) =  -1115.15233508     A.U. after   15 cycles
 SCF Done:  E(RB3LYP) =  -1115.15282620     A.U. after   15 cycles
 SCF Done:  E(RB3LYP) =  -1115.15298414     A.U. after   13 cycles
 SCF Done:  E(RB3LYP) =  -1115.15304963     A.U. after   12 cycles
 SCF Done:  E(RB3LYP) =  -1115.15306882     A.U. after   10 cycles
 SCF Done:  E(RB3LYP) =  -1115.15307574     A.U. after    9 cycles
 SCF Done:  E(RB3LYP) =  -1115.15307809     A.U. after   10 cycles
 SCF Done:  E(RB3LYP) =  -1115.15307878     A.U. after    9 cycles
 SCF Done:  E(RB3LYP) =  -1115.15307901     A.U. after    8 cycles
 Optimization completed.
    -- Stationary point found.
 Normal termination of Gaussian 16 at Tue May 16 04:55:17 2023.

 ----------------------------------------------------------------------
 #N Geom=AllCheck Guess=TCheck SCRF=Check GenChk RB3LYP/6-31G(2df,p) Fr
 eq
 ----------------------------------------------------------------------

 Structure from the checkpoint file:  "OdNNd[SH]Nn1c2cccc-2cccc1dO.chk"
 -------------------
 Title Card Required
 -------------------
 Charge =  0 Multiplicity = 1

                         Standard orientation:
 ---------------------------------------------------------------------
 Center     Atomic      Atomic             Coordinates (Angstroms)
 Number     Number       Type             X           Y           Z
 ---------------------------------------------------------------------
      1          8           0       -3.746096   -1.695973   -1.056513
      2          7           0       -3.163342   -0.647414   -0.945255
      3          7           0       -3.105609   -0.219340    0.383533
      4         16           0       -2.221561    1.152744    0.308195
      5          7           0       -0.678120    1.036023    1.102885
      6          7           0        0.402681    0.756233    0.262150
      7          6           0        0.867653   -0.594821    0.184413
      8          6           0        0.081832   -1.675300    0.446274
      9          6           0        0.900317   -2.881814    0.431443
     10          6           0        2.194546   -2.566249    0.188608
     11          6           0        2.293899   -1.128375    0.002403
     12          6           0        3.448296   -0.421931   -0.188627
     13          6           0        3.254315    0.996564   -0.368022
     14          6           0        2.139003    1.303350   -1.072343
     15          6           0        1.016617    1.911875   -0.321431
     16          8           0        0.636067    3.032304   -0.120944
     17          1           0       -2.731984    1.784202    1.387004
     18          1           0       -0.698463    0.371642    1.875656
     19          1           0       -0.982488   -1.667549    0.630501
     20          1           0        0.499665   -3.875359    0.583377
     21          1           0        3.031802   -3.241826    0.090966
     22          1           0        4.413448   -0.901593   -0.048981
     23          1           0        3.720202    1.698933    0.321610
     24          1           0        1.804890    0.558687   -1.791090
 ---------------------------------------------------------------------

 SCF Done:  E(RB3LYP) =  -1115.15307901     A.U. after    1 cycles

 The electronic state is 1-A.
 Alpha  occ. eigenvalues --  -89.01711 -19.15439 -19.14121 -14.44195 -14.42771
 Alpha  occ. eigenvalues --  -14.41782 -14.35161 -10.31573 -10.25418 -10.23680
 Alpha  occ. eigenvalues --  -10.23448 -10.22904 -10.22042 -10.20613 -10.19592
 Alpha  occ. eigenvalues --  -10.19181  -8.06790  -6.03187  -6.03031  -6.02584
 Alpha  occ. eigenvalues --   -1.13875  -1.08141  -1.03154  -0.95219  -0.90033
 Alpha  occ. eigenvalues --   -0.86133  -0.84186  -0.76664  -0.74186  -0.73619
 Alpha  occ. eigenvalues --   -0.67205  -0.63570  -0.60469  -0.59350  -0.57444
 Alpha  occ. eigenvalues --   -0.56742  -0.53532  -0.52072  -0.51650  -0.49877
 Alpha  occ. eigenvalues --   -0.47495  -0.46409  -0.45813  -0.44547  -0.44504
 Alpha  occ. eigenvalues --   -0.43917  -0.42147  -0.40099  -0.39435  -0.39282
 Alpha  occ. eigenvalues --   -0.38850  -0.37510  -0.34626  -0.32095  -0.30727
 Alpha  occ. eigenvalues --   -0.29782  -0.27885  -0.26522  -0.25694  -0.21482
 Alpha  occ. eigenvalues --   -0.21026
 Alpha virt. eigenvalues --   -0.10566  -0.05024  -0.03997  -0.01884  -0.00574
 Alpha virt. eigenvalues --    0.01705   0.05284   0.06145   0.07622   0.09281
 Alpha virt. eigenvalues --    0.10096   0.11054   0.12162   0.13226   0.14378

 Mulliken charges:
               1
     1  O   -0.265235
     2  N    0.055598
     3  N   -0.218428
     4  S    0.221587
     5  N   -0.274557
     6  N   -0.219755
     7  C    0.254041
     8  C   -0.267998
     9  C   -0.085881
    10  C   -0.212220
    11  C    0.263033
    12  C   -0.199005
    13  C   -0.099186
    14  C   -0.256445
    15  C    0.415345
    16  O   -0.336640
    17  H    0.179227
    18  H    0.264570
    19  H    0.145669
    20  H    0.120444
    21  H    0.110329
    22  H    0.120738
    23  H    0.137020
    24  H    0.147748
 Sum of Mulliken charges =  -0.00000

 Dipole moment (field-independent basis, Debye):
    X=              4.6360    Y=              0.0465    Z=              2.7416  Tot=              5.3861
 Quadrupole moment (field-independent basis, Debye-Ang):
   XX=            -97.7201   YY=           -103.9143   ZZ=            -96.3233
   XY=            -14.2141   XZ=             -6.3530   YZ=              0.2750

  Exact polarizability: 189.186  13.898 184.471  -1.409  -2.012  91.766
 Approx polarizability: 309.921  55.502 360.516  -3.607  -8.578 172.829

                      1                      2                      3
                      A                      A                      A
 Frequencies --     31.6055                42.7667                70.4871
 Red. masses --      8.5668                 8.4400                 7.0753
 Frc consts  --      0.0050                 0.0091                 0.0207
 IR Inten    --      3.0507                 3.3505                 1.5581

                      4                      5                      6
                      A                      A                      A
 Frequencies --     89.5060               109.9146               155.1041
 Red. masses --      8.7282                 7.7703                 5.2315
 Frc consts  --      0.0412                 0.0553                 0.0742
 IR Inten    --      1.2914                 1.6376                 1.3928

                      7                      8                      9
                      A                      A                      A
 Frequencies --    181.8736               203.4513               224.7050
 Red. masses --     11.8976                 6.9010                 4.6346
 Frc consts  --      0.2319                 0.1683                 0.1379
 IR Inten    --      2.5297                 3.3646                 1.6960

                     10                     11                     12
                      A                      A                      A
 Frequencies --    283.7483               305.5037               308.9884
 Red. masses --      5.0441                 3.3874                 6.6392
 Frc consts  --      0.2393                 0.1863                 0.3735
 IR Inten    --      4.1435                 3.0068                 2.4462

                     13                     14                     15
                      A                      A                      A
 Frequencies --    366.2722               381.9394               404.8250
 Red. masses --      5.3507                 3.9236                 6.5638
 Frc consts  --      0.4229                 0.3372                 0.6338
 IR Inten    --      3.5033                14.9319                 3.8843

                     16                     17                     18
                      A                      A                      A
 Frequencies --    436.9226               438.2422               483.8873
 Red. masses --      4.4804                 3.8126                 3.5698
 Frc consts  --      0.5039                 0.4314                 0.4925
 IR Inten    --      3.1895                11.6820                63.2697

                     19                     20                     21
                      A                      A                      A
 Frequencies --    540.7741               570.5209               588.6980
 Red. masses --      4.3499                 3.1797                 9.4553
 Frc consts  --      0.7495                 0.6098                 1.9307
 IR Inten    --      1.6326                15.1097                27.8321

                     22                     23                     24
                      A                      A                      A
 Frequencies --    609.7803               682.4037               700.1475
 Red. masses --      3.8841                 2.2380                 4.9909
 Frc consts  --      0.8509                 0.6140                 1.4415
 IR Inten    --     12.1669                 9.5900                 1.0258

                     25                     26                     27
                      A                      A                      A
 Frequencies --    720.3329               766.2984               768.0906
 Red. masses --      4.9303                 2.2195                 2.3827
 Frc consts  --      1.5073                 0.7679                 0.8282
 IR Inten    --     10.0252                 8.1275               121.9526

                     28                     29                     30
                      A                      A                      A
 Frequencies --    783.9108               789.7397               829.3753
 Red. masses --      2.9975                 2.7908                 2.8493
 Frc consts  --      1.0853                 1.0255                 1.1548
 IR Inten    --     67.8026                39.0180               101.4036

                     31                     32                     33
                      A                      A                      A
 Frequencies --    845.1452               869.5391               896.3374
 Red. masses --      2.5613                 1.3802                 2.3388
 Frc consts  --      1.0779                 0.6149                 1.1071
 IR Inten    --     74.0056                14.4251               130.5331

                     34                     35                     36
                      A                      A                      A
 Frequencies --    911.5599               942.3663               962.1364
 Red. masses --      2.0074                 1.3548                 4.4694
 Frc consts  --      0.9828                 0.7089                 2.4377
 IR Inten    --     10.4881                 0.9064                 9.5967

                     37                     38                     39
                      A                      A                      A
 Frequencies --    995.0785              1010.1256              1037.9959
 Red. masses --      1.3557                 3.3272                 2.0008
 Frc consts  --      0.7909                 2.0003                 1.2701
 IR Inten    --     31.0120                51.6166                46.3360

                     40                     41                     42
                      A                      A                      A
 Frequencies --   1055.3361              1093.5531              1108.2799
 Red. masses --      3.2325                 1.8537                 1.3854
 Frc consts  --      2.1212                 1.3061                 1.0026
 IR Inten    --     79.7629                39.9375                28.5417

                     43                     44                     45
                      A                      A                      A
 Frequencies --   1119.1376              1149.1280              1182.1441
 Red. masses --      1.4580                 2.3081                 2.8352
 Frc consts  --      1.0759                 1.7958                 2.3344
 IR Inten    --     61.0085                 0.2717                24.5216

                     46                     47                     48
                      A                      A                      A
 Frequencies --   1253.0830              1267.8292              1303.9630
 Red. masses --      2.9666                 1.5643                 1.7182
 Frc consts  --      2.7445                 1.4814                 1.7213
 IR Inten    --     20.6946                 3.0268                 4.6326

                     49                     50                     51
                      A                      A                      A
 Frequencies --   1324.0822              1352.6462              1392.9528
 Red. masses --      2.4229                 1.3347                 1.9993
 Frc consts  --      2.5028                 1.4388                 2.2856
 IR Inten    --     59.9727                 1.4655                10.2453

                     52                     53                     54
                      A                      A                      A
 Frequencies --   1441.8063              1513.0716              1575.2436
 Red. masses --      1.2594                 7.0703                 6.2432
 Frc consts  --      1.5426                 9.5369                 9.1275
 IR Inten    --     12.5060                70.6728                15.7384

                     55                     56                     57
                      A                      A                      A
 Frequencies --   1611.0702              1621.4669              1633.2116
 Red. masses --      5.3743                 6.1715                14.0386
 Frc consts  --      8.2187                 9.5600                22.0627
 IR Inten    --      8.7528                12.6673               227.8925

                     58                     59                     60
                      A                      A                      A
 Frequencies --   1840.4084              2630.1291              3137.7135
 Red. masses --     12.5579                 1.0384                 1.0882
 Frc consts  --     25.0608                 4.2323                 6.3123
 IR Inten    --    461.8656                 2.2527                 2.5994

                     61                     62                     63
                      A                      A                      A
 Frequencies --   3143.6069              3166.5613              3220.1290
 Red. masses --      1.0843                 1.0916                 1.0879
 Frc consts  --      6.3132                 6.4488                 6.6462
 IR Inten    --      3.0199                13.2266                 3.9501

                     64                     65                     66
                      A                      A                      A
 Frequencies --   3239.8427              3246.9443              3478.2030
 Red. masses --      1.0947                 1.1038                 1.0745
 Frc consts  --      6.7699                 6.8564                 7.6588
 IR Inten    --      2.3671                 3.7352                22.7735

 - Thermochemistry -
 -------------------
 Temperature   298.150 Kelvin.  Pressure   1.00000 Atm.
 Atom     1 has atomic number  8 and mass  15.99491

 Molecular mass:   236.03680 amu.
 Principal axes and moments of inertia in atomic units:
                           1         2         3
     Eigenvalues --  2487.706164608.544896483.95263
           X            0.99977  -0.02031  -0.00645
           Y            0.02030   0.99979  -0.00155
           Z            0.00648   0.00142   0.99998
 This molecule is an asymmetric top.
 Rotational symmetry number  1.
 Warning -- assumption of classical behavior for rotation
           may cause significant error
 Rotational temperatures (Kelvin)      0.03482     0.01879     0.01336
 Rotational constants (GHZ):           0.72546     0.39161     0.27834
 Zero-point vibrational energy     433297.2 (Joules/Mol)
                                  103.56053 (Kcal/Mol)
 Warning -- explicit consideration of  22 degrees of freedom as
           vibrations may cause significant error
 Vibrational temperatures:     45.47    61.53   101.42   128.78   158.14
          (Kelvin)            223.16   261.68   292.72   323.30   408.25
                              439.55   444.57   526.98   549.53   582.45
                              628.63   630.53   696.21   778.05   820.85
                              847.01   877.34   981.83  1007.36  1036.40
                             1102.53  1105.11  1127.87  1136.26  1193.29
                             1215.98  1251.07  1289.63  1311.53  1355.85
                             1384.30  1431.70  1453.35  1493.44  1518.39
                             1573.38  1594.57  1610.19  1653.34  1700.84
                             1802.91  1824.12  1876.11  1905.06  1946.16
                             2004.15  2074.44  2176.97  2266.42  2317.97
                             2332.93  2349.83  2647.94  3784.17  4514.47
                             4522.95  4555.98  4633.05  4661.41  4671.63
                             5004.36

 Zero-point correction=                           0.165034 (Hartree/Particle)
 Thermal correction to Energy=                    0.179280
 Thermal correction to Enthalpy=                  0.180224
 Thermal correction to Gibbs Free Energy=         0.122650
 Sum of electronic and zero-point Energies=          -1114.988045
 Sum of electronic and thermal Energies=             -1114.973799
 Sum of electronic and thermal Enthalpies=           -1114.972855
 Sum of electronic and thermal Free Energies=        -1115.030429

                     E (Thermal)             CV                S
                      KCal/Mol        Cal/Mol-Kelvin    Cal/Mol-Kelvin
 Total                  112.500             53.860            121.176
 Electronic               0.000              0.000              0.000
 Translational            0.889              2.981             42.278
 Rotational               0.889              2.981             32.675
 Vibrational            110.723             47.898             46.224
 Vibration     1          0.594              1.983              5.726
 Vibration     2          0.595              1.980              5.127
 Vibration     3          0.598              1.968              4.140
 Vibration     4          0.602              1.957              3.671
 Vibration     5          0.606              1.941              3.270
 Vibration     6          0.620              1.897              2.609
 Vibration     7          0.630              1.864              2.309
 Vibration     8          0.639              1.835              2.102
 Vibration     9          0.649              1.803              1.921
 Vibration    10          0.682              1.704              1.511
 Vibration    11          0.696              1.663              1.387
 Vibration    12          0.698              1.657              1.368
 Vibration    13          0.739              1.542              1.095
 Vibration    14          0.751              1.509              1.031
 Vibration    15          0.770              1.460              0.945
 Vibration    16          0.797              1.390              0.836
 Vibration    17          0.798              1.387              0.832
 Vibration    18          0.840              1.286              0.700
 Vibration    19          0.896              1.160              0.564
 Vibration    20          0.927              1.095              0.503
 Vibration    21          0.946              1.056              0.470
 Vibration    22          0.969              1.011              0.433

                           ! Non-Optimized Parameters !
 Normal termination of Gaussian 16 at Tue May 16 06:50:37 2023.
