 Gaussian 16, Revision A.03,
 Gaussian 16:  ES64L-G16RevA.03 25-Dec-2016

 -----------------------------
 # opt freq b3lyp/6-31g(2df,p)
 -----------------------------

 -------------------
 Title Card Required
 -------------------
 Symbolic Z-matrix:
 Charge =  0 Multiplicity = 1

 SCF Done:  E(RB3LYP) =  -1988.51026961     A.U. after   25 cycles
 SCF Done:  E(RB3LYP) =  -1988.56176832     A.U. after   18 cycles
 SCF Done:  E(RB3LYP) =  -1988.61167966     A.U. after   18 cycles
 SCF Done:  E(RB3LYP) =  -1988.64076670     A.U. after   17 cycles
 SCF Done:  E(RB3LYP) =  -1988.66845909     A.U. after   17 cycles
 SCF Done:  E(RB3LYP) =  -1988.68051163     A.U. after   16 cycles
 SCF Done:  E(RB3LYP) =  -1988.69262132     A.U. after   16 cycles
 SCF Done:  E(RB3LYP) =  -1988.69342334     A.U. after   12 cycles
 SCF Done:  E(RB3LYP) =  -1988.70344698     A.U. after   16 cycles
 SCF Done:  E(RB3LYP) =  -1988.71045229     A.U. after   16 cycles
 SCF Done:  E(RB3LYP) =  -1988.71775230     A.U. after   13 cycles
 SCF Done:  E(RB3LYP) =  -1988.71813397     A.U. after   14 cycles
 SCF Done:  E(RB3LYP) =  -1988.71822557     A.U. after   13 cycles
 SCF Done:  E(RB3LYP) =  -1988.71826299     A.U. after   12 cycles
 SCF Done:  E(RB3LYP) =  -1988.71827856     A.U. after   11 cycles
 SCF Done:  E(RB3LYP) =  -1988.71828466     A.U. after   10 cycles
 SCF Done:  E(RB3LYP) =  -1988.71828603     A.U. after    9 cycles
 SCF Done:  E(RB3LYP) =  -1988.71828795     A.U. after   10 cycles
 SCF Done:  E(RB3LYP) =  -1988.71828858     A.U. after    8 cycles
 Optimization completed.
    -- Stationary point found.
 Normal termination of Gaussian 16 at Wed May 17 19:35:55 2023.

 ----------------------------------------------------------------------
 #N Geom=AllCheck Guess=TCheck SCRF=Check GenChk RB3LYP/6-31G(2df,p) Fr
 eq
 ----------------------------------------------------------------------

 Structure from the checkpoint file:  "OdSdNC1dCqCdSrCNN[SH]1S.chk"
 -------------------
 Title Card Required
 -------------------
 Charge =  0 Multiplicity = 1

                         Standard orientation:
 ---------------------------------------------------------------------
 Center     Atomic      Atomic             Coordinates (Angstroms)
 Number     Number       Type             X           Y           Z
 ---------------------------------------------------------------------
      1          8           0        1.413955    3.430986   -0.317954
      2         16           0        0.905000    2.298222    0.448873
      3          7           0        1.079309    0.939196   -0.296171
      4          6           0        0.446255   -0.215632   -0.127451
      5          6           0        1.001578   -1.464156   -0.050209
      6          6           0        2.419665   -1.667022   -0.093480
      7         16           0        3.623571   -0.551711   -0.045187
      8          6           0        0.112013   -2.697434   -0.025083
      9          7           0       -1.227592   -2.458498    0.487351
     10          7           0       -1.942319   -1.551088   -0.277854
     11         16           0       -1.513486    0.177074    0.003497
     12         16           0       -3.911635    0.678281   -0.144873
     13          1           0        2.705593   -2.718474   -0.199340
     14          1           0        0.563841   -3.471692    0.603781
     15          1           0        0.004876   -3.119517   -1.031403
     16          1           0       -1.219253   -2.245464    1.484163
     17          1           0       -2.934358   -1.556935   -0.030886
     18          1           0       -1.426142    0.700966   -1.231309
     19          1           0       -3.904242    1.091568    1.135715
 ---------------------------------------------------------------------

 SCF Done:  E(RB3LYP) =  -1988.71828858     A.U. after    1 cycles

 The electronic state is 1-A.
 Alpha  occ. eigenvalues --  -89.03019 -89.01533 -88.86006 -88.84910 -19.16721
 Alpha  occ. eigenvalues --  -14.41988 -14.40360 -14.39429 -10.28069 -10.25511
 Alpha  occ. eigenvalues --  -10.25221 -10.22656  -8.07497  -8.06713  -7.92499
 Alpha  occ. eigenvalues --   -7.91814  -6.03868  -6.03723  -6.03469  -6.02970
 Alpha  occ. eigenvalues --   -6.02951  -6.02590  -5.88789  -5.88766  -5.88122
 Alpha  occ. eigenvalues --   -5.88045  -5.87892  -5.87415  -1.08192  -1.04069
 Alpha  occ. eigenvalues --   -0.97317  -0.87905  -0.84662  -0.78864  -0.74933
 Alpha  occ. eigenvalues --   -0.72041  -0.69038  -0.65343  -0.61532  -0.58374
 Alpha  occ. eigenvalues --   -0.54305  -0.53277  -0.51275  -0.48764  -0.47665
 Alpha  occ. eigenvalues --   -0.46130  -0.45409  -0.44407  -0.43747  -0.41884
 Alpha  occ. eigenvalues --   -0.38467  -0.38237  -0.37294  -0.33796  -0.32493
 Alpha  occ. eigenvalues --   -0.32311  -0.31024  -0.28556  -0.24839  -0.24418
 Alpha  occ. eigenvalues --   -0.23659  -0.21676
 Alpha virt. eigenvalues --   -0.12627  -0.09062  -0.05258  -0.02882   0.01616
 Alpha virt. eigenvalues --    0.02654   0.03973   0.05080   0.06522   0.07862
 Alpha virt. eigenvalues --    0.08602   0.10536   0.11198   0.12677   0.15437

 Mulliken charges:
               1
     1  O   -0.220900
     2  S    0.239696
     3  N   -0.163511
     4  C    0.108644
     5  C    0.142737
     6  C   -0.069108
     7  S   -0.263558
     8  C   -0.238459
     9  N   -0.254146
    10  N   -0.276646
    11  S    0.149925
    12  S   -0.498455
    13  H    0.126722
    14  H    0.129778
    15  H    0.149239
    16  H    0.244405
    17  H    0.298358
    18  H    0.235022
    19  H    0.160257
 Sum of Mulliken charges =   0.00000

 Dipole moment (field-independent basis, Debye):
    X=             -1.4362    Y=             -3.8137    Z=              2.4940  Tot=              4.7778
 Quadrupole moment (field-independent basis, Debye-Ang):
   XX=           -124.5503   YY=            -99.9025   ZZ=            -93.3180
   XY=             -1.7057   XZ=             -2.3880   YZ=              1.3964

  Exact polarizability: 296.255 -18.038 199.702   0.940   1.248  86.570
 Approx polarizability: 559.351 -24.572 426.072   5.468   5.117 160.757

                      1                      2                      3
                      A                      A                      A
 Frequencies --     40.1949                64.8321                80.8543
 Red. masses --     11.1284                14.1862                 4.9447
 Frc consts  --      0.0106                 0.0351                 0.0190
 IR Inten    --      2.3088                 0.9855                 3.9035

                      4                      5                      6
                      A                      A                      A
 Frequencies --     95.6874               109.2128               144.2887
 Red. masses --      4.0310                16.9665                 5.2533
 Frc consts  --      0.0217                 0.1192                 0.0644
 IR Inten    --      0.7069                 3.8909                 4.1682

                      7                      8                      9
                      A                      A                      A
 Frequencies --    160.7927               173.9304               192.0696
 Red. masses --      4.3606                 6.8441                 3.9473
 Frc consts  --      0.0664                 0.1220                 0.0858
 IR Inten    --      3.8842                20.7710                 0.9187

                     10                     11                     12
                      A                      A                      A
 Frequencies --    201.1266               219.2504               256.7867
 Red. masses --      1.5320                13.2043                11.7842
 Frc consts  --      0.0365                 0.3740                 0.4578
 IR Inten    --      8.6489                22.8432               155.9885

                     13                     14                     15
                      A                      A                      A
 Frequencies --    312.0667               339.8127               351.1665
 Red. masses --      3.6666                10.2044                 5.0726
 Frc consts  --      0.2104                 0.6943                 0.3686
 IR Inten    --      7.9997                98.9094                65.7346

                     16                     17                     18
                      A                      A                      A
 Frequencies --    375.5499               424.3188               470.8199
 Red. masses --      4.3919                 6.6192                 5.9295
 Frc consts  --      0.3650                 0.7022                 0.7744
 IR Inten    --      9.5052                 0.5756                 2.8134

                     19                     20                     21
                      A                      A                      A
 Frequencies --    480.8664               534.0341               579.1913
 Red. masses --      6.2296                 3.9155                 2.5812
 Frc consts  --      0.8487                 0.6579                 0.5102
 IR Inten    --     16.4104                68.9356                28.3713

                     22                     23                     24
                      A                      A                      A
 Frequencies --    635.7084               657.1199               740.9655
 Red. masses --      1.3471                 3.0727                 2.1801
 Frc consts  --      0.3208                 0.7817                 0.7052
 IR Inten    --      7.0538                 3.2200               170.5120

                     25                     26                     27
                      A                      A                      A
 Frequencies --    781.9264               865.9271               883.7892
 Red. masses --      1.3126                 5.0252                 1.8739
 Frc consts  --      0.4728                 2.2201                 0.8624
 IR Inten    --     45.7012                93.0662                22.2769

                     28                     29                     30
                      A                      A                      A
 Frequencies --    921.1715               948.2848               981.8114
 Red. masses --      3.1735                 1.6837                 2.2098
 Frc consts  --      1.5866                 0.8921                 1.2550
 IR Inten    --      4.0579                19.1060                84.6904

                     31                     32                     33
                      A                      A                      A
 Frequencies --    992.6102              1043.7244              1095.0292
 Red. masses --      1.2959                 3.2337                 1.9126
 Frc consts  --      0.7523                 2.0755                 1.3512
 IR Inten    --      7.6974                35.2561                12.7530

                     34                     35                     36
                      A                      A                      A
 Frequencies --   1171.6410              1199.7820              1225.0272
 Red. masses --      3.4355                 3.0821                 6.0268
 Frc consts  --      2.7786                 2.6140                 5.3288
 IR Inten    --     63.4549                95.2797               254.4715

                     37                     38                     39
                      A                      A                      A
 Frequencies --   1285.3950              1336.2925              1354.2997
 Red. masses --      1.2115                 4.3346                 1.5694
 Frc consts  --      1.1793                 4.5604                 1.6960
 IR Inten    --     12.9183                19.5284               110.3644

                     40                     41                     42
                      A                      A                      A
 Frequencies --   1387.2636              1405.3121              1472.0710
 Red. masses --      1.9594                 1.1324                 1.1009
 Frc consts  --      2.2217                 1.3176                 1.4056
 IR Inten    --     37.6945                17.6236                 1.7321

                     43                     44                     45
                      A                      A                      A
 Frequencies --   1518.7844              1568.3700              2670.2015
 Red. masses --      1.1913                 6.3911                 1.0406
 Frc consts  --      1.6191                 9.2624                 4.3714
 IR Inten    --      4.0934               155.1719                 7.4946

                     46                     47                     48
                      A                      A                      A
 Frequencies --   2685.0014              3036.2248              3063.2759
 Red. masses --      1.0387                 1.0607                 1.0854
 Frc consts  --      4.4118                 5.7614                 6.0008
 IR Inten    --      3.8659                19.1320                27.9199

                     49                     50                     51
                      A                      A                      A
 Frequencies --   3082.3402              3425.5390              3442.6569
 Red. masses --      1.1027                 1.0774                 1.0747
 Frc consts  --      6.1728                 7.4490                 7.5046
 IR Inten    --     10.0975                27.9524                 1.6769

 - Thermochemistry -
 -------------------
 Temperature   298.150 Kelvin.  Pressure   1.00000 Atm.
 Atom     1 has atomic number  8 and mass  15.99491

 Molecular mass:   240.94720 amu.
 Principal axes and moments of inertia in atomic units:
                           1         2         3
     Eigenvalues --  2569.459474542.364956959.87116
           X            0.99991  -0.01272  -0.00370
           Y            0.01271   0.99992  -0.00180
           Z            0.00372   0.00175   0.99999
 This molecule is an asymmetric top.
 Rotational symmetry number  1.
 Warning -- assumption of classical behavior for rotation
           may cause significant error
 Rotational temperatures (Kelvin)      0.03371     0.01907     0.01244
 Rotational constants (GHZ):           0.70238     0.39731     0.25931
 Zero-point vibrational energy     313926.4 (Joules/Mol)
                                   75.03022 (Kcal/Mol)
 Warning -- explicit consideration of  21 degrees of freedom as
           vibrations may cause significant error
 Vibrational temperatures:     57.83    93.28   116.33   137.67   157.13
          (Kelvin)            207.60   231.34   250.25   276.35   289.38
                              315.45   369.46   448.99   488.91   505.25
                              540.33   610.50   677.40   691.86   768.36
                              833.33   914.64   945.45  1066.08  1125.02
                             1245.88  1271.58  1325.36  1364.37  1412.61
                             1428.14  1501.69  1575.50  1685.73  1726.22
                             1762.54  1849.40  1922.63  1948.54  1995.96
                             2021.93  2117.98  2185.19  2256.53  3841.82
                             3863.12  4368.45  4407.37  4434.80  4928.59
                             4953.22

 Zero-point correction=                           0.119568 (Hartree/Particle)
 Thermal correction to Energy=                    0.133840
 Thermal correction to Enthalpy=                  0.134785
 Thermal correction to Gibbs Free Energy=         0.077021
 Sum of electronic and zero-point Energies=          -1988.598720
 Sum of electronic and thermal Energies=             -1988.584448
 Sum of electronic and thermal Enthalpies=           -1988.583504
 Sum of electronic and thermal Free Energies=        -1988.641267

                     E (Thermal)             CV                S
                      KCal/Mol        Cal/Mol-Kelvin    Cal/Mol-Kelvin
 Total                   83.986             49.453            121.573
 Electronic               0.000              0.000              0.000
 Translational            0.889              2.981             42.339
 Rotational               0.889              2.981             32.763
 Vibrational             82.209             43.491             46.471
 Vibration     1          0.594              1.981              5.249
 Vibration     2          0.597              1.971              4.304
 Vibration     3          0.600              1.962              3.870
 Vibration     4          0.603              1.952              3.540
 Vibration     5          0.606              1.942              3.283
 Vibration     6          0.616              1.909              2.746
 Vibration     7          0.622              1.890              2.540
 Vibration     8          0.627              1.875              2.393
 Vibration     9          0.634              1.851              2.208
 Vibration    10          0.638              1.838              2.123
 Vibration    11          0.647              1.812              1.965
 Vibration    12          0.666              1.751              1.684
 Vibration    13          0.700              1.651              1.351
 Vibration    14          0.720              1.596              1.213
 Vibration    15          0.728              1.573              1.161
 Vibration    16          0.746              1.522              1.057
 Vibration    17          0.786              1.417              0.877
 Vibration    18          0.828              1.315              0.735
 Vibration    19          0.837              1.292              0.708
 Vibration    20          0.889              1.175              0.578
 Vibration    21          0.936              1.076              0.487

                           ! Non-Optimized Parameters !
 Normal termination of Gaussian 16 at Wed May 17 20:23:42 2023.
