 Gaussian 16, Revision A.03,
 Gaussian 16:  ES64L-G16RevA.03 25-Dec-2016

 -----------------------------
 # opt freq b3lyp/6-31g(2df,p)
 -----------------------------

 -------------------
 Title Card Required
 -------------------
 Symbolic Z-matrix:
 Charge =  0 Multiplicity = 1

 SCF Done:  E(RB3LYP) =  -1445.34680024     A.U. after   18 cycles
 SCF Done:  E(RB3LYP) =  -1445.39148990     A.U. after   14 cycles
 SCF Done:  E(RB3LYP) =  -1445.42831588     A.U. after   14 cycles
 SCF Done:  E(RB3LYP) =  -1445.43637341     A.U. after   13 cycles
 SCF Done:  E(RB3LYP) =  -1445.44202973     A.U. after   14 cycles
 SCF Done:  E(RB3LYP) =  -1445.44431460     A.U. after   13 cycles
 SCF Done:  E(RB3LYP) =  -1445.44566825     A.U. after   13 cycles
 SCF Done:  E(RB3LYP) =  -1445.44604924     A.U. after   12 cycles
 SCF Done:  E(RB3LYP) =  -1445.44612403     A.U. after   11 cycles
 SCF Done:  E(RB3LYP) =  -1445.44614932     A.U. after   11 cycles
 SCF Done:  E(RB3LYP) =  -1445.44615844     A.U. after   10 cycles
 SCF Done:  E(RB3LYP) =  -1445.44616205     A.U. after    9 cycles
 SCF Done:  E(RB3LYP) =  -1445.44616441     A.U. after   10 cycles
 SCF Done:  E(RB3LYP) =  -1445.44616562     A.U. after    9 cycles
 SCF Done:  E(RB3LYP) =  -1445.44616619     A.U. after    8 cycles
 SCF Done:  E(RB3LYP) =  -1445.44616634     A.U. after    7 cycles
 Optimization completed.
    -- Stationary point found.
 Normal termination of Gaussian 16 at Tue May 16 17:25:40 2023.

 ----------------------------------------------------------------------
 #N Geom=AllCheck Guess=TCheck SCRF=Check GenChk RB3LYP/6-31G(2df,p) Fr
 eq
 ----------------------------------------------------------------------

 Structure from the checkpoint file:  "ONC1CdC2NdCCdCCdC2CdCCdCSS1.chk"
 -------------------
 Title Card Required
 -------------------
 Charge =  0 Multiplicity = 1

                         Standard orientation:
 ---------------------------------------------------------------------
 Center     Atomic      Atomic             Coordinates (Angstroms)
 Number     Number       Type             X           Y           Z
 ---------------------------------------------------------------------
      1          8           0        2.927263    2.140475   -1.114249
      2          7           0        1.639071    2.401746   -0.551708
      3          6           0        1.008119    1.127389   -0.191149
      4          6           0       -0.453474    1.432481   -0.022473
      5          6           0       -1.628266    0.779879   -0.253338
      6          7           0       -2.760366    1.614736   -0.152163
      7          6           0       -3.905899    1.329238    0.342509
      8          6           0       -4.431445    0.087986    0.872252
      9          6           0       -3.965492   -1.137682    0.542956
     10          6           0       -2.845514   -1.437740   -0.303289
     11          6           0       -1.811144   -0.637394   -0.680551
     12          6           0       -0.662117   -1.204389   -1.392014
     13          6           0        0.054225   -2.216535   -0.853119
     14          6           0        1.500069   -2.112733   -0.910646
     15          6           0        2.164529   -2.170446    0.262387
     16         16           0        3.327901   -0.881006    0.658495
     17         16           0        1.871900    0.469444    1.372082
     18          1           0        3.527220    2.435663   -0.419747
     19          1           0        1.112242    2.792775   -1.332253
     20          1           0        1.228430    0.356522   -0.924905
     21          1           0       -0.608901    2.465317    0.284656
     22          1           0       -4.617684    2.160844    0.348456
     23          1           0       -5.337800    0.166146    1.465258
     24          1           0       -4.521775   -2.001251    0.900243
     25          1           0       -2.794791   -2.465136   -0.655479
     26          1           0       -0.197163   -0.573102   -2.143653
     27          1           0       -0.366423   -2.781232   -0.025620
     28          1           0        1.937777   -1.573140   -1.746526
     29          1           0        1.731471   -2.677913    1.120270
 ---------------------------------------------------------------------

 SCF Done:  E(RB3LYP) =  -1445.44616634     A.U. after    1 cycles

 The electronic state is 1-A.
 Alpha  occ. eigenvalues --  -88.89488 -88.88330 -19.16093 -14.37072 -14.33536
 Alpha  occ. eigenvalues --  -10.24774 -10.23940 -10.23938 -10.22913 -10.21965
 Alpha  occ. eigenvalues --  -10.21802 -10.21751 -10.21589 -10.20886 -10.20709
 Alpha  occ. eigenvalues --  -10.20452 -10.18900  -7.95599  -7.94568  -5.92111
 Alpha  occ. eigenvalues --   -5.91772  -5.91080  -5.91079  -5.90677  -5.90075
 Alpha  occ. eigenvalues --   -1.05726  -0.93928  -0.86429  -0.85187  -0.83031
 Alpha  occ. eigenvalues --   -0.81445  -0.78455  -0.74258  -0.73481  -0.68950
 Alpha  occ. eigenvalues --   -0.66892  -0.63646  -0.60901  -0.57750  -0.56862
 Alpha  occ. eigenvalues --   -0.54996  -0.53626  -0.51921  -0.50521  -0.49114
 Alpha  occ. eigenvalues --   -0.47458  -0.46486  -0.44860  -0.44690  -0.42734
 Alpha  occ. eigenvalues --   -0.42194  -0.41267  -0.40281  -0.39533  -0.38838
 Alpha  occ. eigenvalues --   -0.38150  -0.36401  -0.36204  -0.33589  -0.32952
 Alpha  occ. eigenvalues --   -0.31837  -0.29731  -0.29411  -0.26378  -0.25596
 Alpha  occ. eigenvalues --   -0.24406  -0.23209  -0.22195  -0.20226
 Alpha virt. eigenvalues --   -0.08475  -0.05591  -0.04552  -0.01004   0.00347
 Alpha virt. eigenvalues --    0.04128   0.05491   0.07726   0.08202   0.08799
 Alpha virt. eigenvalues --    0.09439   0.09765   0.11435   0.12644   0.13845

 Mulliken charges:
               1
     1  O   -0.416111
     2  N   -0.214837
     3  C   -0.014520
     4  C   -0.137609
     5  C    0.166026
     6  N   -0.268200
     7  C    0.004352
     8  C   -0.125759
     9  C   -0.077646
    10  C   -0.155340
    11  C    0.197421
    12  C   -0.200222
    13  C   -0.069663
    14  C   -0.076887
    15  C   -0.105662
    16  S   -0.105640
    17  S   -0.091830
    18  H    0.310236
    19  H    0.244568
    20  H    0.105384
    21  H    0.113400
    22  H    0.112745
    23  H    0.105701
    24  H    0.109823
    25  H    0.102915
    26  H    0.118189
    27  H    0.111084
    28  H    0.131693
    29  H    0.126391
 Sum of Mulliken charges =  -0.00000

 Dipole moment (field-independent basis, Debye):
    X=             -3.3581    Y=             -1.9468    Z=             -0.6387  Tot=              3.9337
 Quadrupole moment (field-independent basis, Debye-Ang):
   XX=           -105.3679   YY=           -108.7451   ZZ=           -114.2850
   XY=              4.5214   XZ=             -5.3290   YZ=             -0.7053

  Exact polarizability: 304.281  -9.461 183.902  -5.327   2.851 127.300
 Approx polarizability: 512.805 -25.139 339.547   0.183   9.380 247.876

                      1                      2                      3
                      A                      A                      A
 Frequencies --     37.7904                59.5078                79.8489
 Red. masses --      5.7196                 6.9531                 6.2970
 Frc consts  --      0.0048                 0.0145                 0.0237
 IR Inten    --      1.0168                 0.8632                 0.3714

                      4                      5                      6
                      A                      A                      A
 Frequencies --    104.9445               116.9259               153.3119
 Red. masses --      7.2399                 5.9845                 6.0861
 Frc consts  --      0.0470                 0.0482                 0.0843
 IR Inten    --      0.3471                 0.2022                 2.7387

                      7                      8                      9
                      A                      A                      A
 Frequencies --    170.0396               187.7938               227.4072
 Red. masses --      5.6695                 6.5848                 3.4971
 Frc consts  --      0.0966                 0.1368                 0.1066
 IR Inten    --      0.2139                 3.3594                 3.8784

                     10                     11                     12
                      A                      A                      A
 Frequencies --    229.9779               272.1483               289.8004
 Red. masses --      3.2855                 2.6142                 3.7394
 Frc consts  --      0.1024                 0.1141                 0.1850
 IR Inten    --     11.9822                 7.6573                 8.1504

                     13                     14                     15
                      A                      A                      A
 Frequencies --    296.3125               321.6939               340.7193
 Red. masses --      3.4311                 1.8222                 3.2466
 Frc consts  --      0.1775                 0.1111                 0.2221
 IR Inten    --     19.1799                94.4339                 3.1139

                     16                     17                     18
                      A                      A                      A
 Frequencies --    348.2406               378.7794               382.9483
 Red. masses --      4.4568                 4.9215                 4.0016
 Frc consts  --      0.3184                 0.4160                 0.3458
 IR Inten    --      5.2616                 1.5988                 3.4742

                     19                     20                     21
                      A                      A                      A
 Frequencies --    407.9528               442.0615               451.3416
 Red. masses --      5.5862                 6.9817                11.1746
 Frc consts  --      0.5478                 0.8039                 1.3412
 IR Inten    --      2.6977                 5.2329                 0.6274

                     22                     23                     24
                      A                      A                      A
 Frequencies --    471.2989               479.1745               517.0894
 Red. masses --      5.4604                 4.3493                 6.1833
 Frc consts  --      0.7146                 0.5884                 0.9741
 IR Inten    --      3.3319                 0.2249                 7.7330

                     25                     26                     27
                      A                      A                      A
 Frequencies --    572.8377               612.0018               627.7427
 Red. masses --      3.3890                 3.6052                 3.5441
 Frc consts  --      0.6552                 0.7956                 0.8228
 IR Inten    --      6.5902                39.8192                32.9436

                     28                     29                     30
                      A                      A                      A
 Frequencies --    723.1205               735.8149               762.3390
 Red. masses --      2.7097                 4.2184                 4.3788
 Frc consts  --      0.8348                 1.3457                 1.4994
 IR Inten    --      7.7474                 2.9990                19.2210

                     31                     32                     33
                      A                      A                      A
 Frequencies --    780.1665               808.0740               817.2131
 Red. masses --      1.8159                 4.4232                 1.7149
 Frc consts  --      0.6512                 1.7017                 0.6748
 IR Inten    --     12.0500                 0.9523                70.5963

                     34                     35                     36
                      A                      A                      A
 Frequencies --    868.7864               882.1742               897.7594
 Red. masses --      1.9972                 2.4232                 2.9488
 Frc consts  --      0.8882                 1.1111                 1.4003
 IR Inten    --    104.7261                43.0802                42.7813

                     37                     38                     39
                      A                      A                      A
 Frequencies --    917.2135               936.3290               949.4374
 Red. masses --      1.5231                 1.8360                 2.4216
 Frc consts  --      0.7550                 0.9484                 1.2861
 IR Inten    --     28.5433                 2.2437                 9.1552

                     40                     41                     42
                      A                      A                      A
 Frequencies --    988.4507               991.7614              1008.7698
 Red. masses --      1.7886                 1.1754                 1.2949
 Frc consts  --      1.0296                 0.6812                 0.7764
 IR Inten    --      0.9494                12.6895                 0.6834

                     43                     44                     45
                      A                      A                      A
 Frequencies --   1025.8002              1041.8902              1055.4941
 Red. masses --      2.9802                 4.4274                 2.8999
 Frc consts  --      1.8477                 2.8317                 1.9035
 IR Inten    --      2.9044                31.4231                 2.5458

                     46                     47                     48
                      A                      A                      A
 Frequencies --   1060.4334              1106.5947              1135.5985
 Red. masses --      1.1417                 2.3362                 2.5926
 Frc consts  --      0.7564                 1.6855                 1.9698
 IR Inten    --     60.7001                14.6385                 8.5148

                     49                     50                     51
                      A                      A                      A
 Frequencies --   1150.2092              1195.5976              1209.3725
 Red. masses --      3.3652                 1.9311                 1.1834
 Frc consts  --      2.6231                 1.6264                 1.0197
 IR Inten    --     14.0764                16.2451                 3.2417

                     52                     53                     54
                      A                      A                      A
 Frequencies --   1234.0644              1259.8257              1281.5943
 Red. masses --      1.1708                 1.2932                 1.3388
 Frc consts  --      1.0506                 1.2093                 1.2956
 IR Inten    --      8.6509                 5.8529                10.2348

                     55                     56                     57
                      A                      A                      A
 Frequencies --   1305.2515              1317.0751              1329.1579
 Red. masses --      1.3555                 1.4474                 1.3514
 Frc consts  --      1.3606                 1.4793                 1.4067
 IR Inten    --      7.4108                 6.0910                 1.3619

                     58                     59                     60
                      A                      A                      A
 Frequencies --   1351.7771              1368.4956              1404.8702
 Red. masses --      1.2776                 1.1909                 1.5903
 Frc consts  --      1.3755                 1.3141                 1.8492
 IR Inten    --      0.6824                73.4977                 0.0175

                     61                     62                     63
                      A                      A                      A
 Frequencies --   1433.0582              1460.8155              1493.7369
 Red. masses --      1.2492                 1.7044                 1.0907
 Frc consts  --      1.5115                 2.1429                 1.4338
 IR Inten    --      5.8604                16.9008                 1.8795

                     64                     65                     66
                      A                      A                      A
 Frequencies --   1570.0683              1577.2201              1609.9173
 Red. masses --      5.6596                 7.3558                 6.4399
 Frc consts  --      8.2201                10.7812                 9.8342
 IR Inten    --      4.7845                79.3968                70.8964

                     67                     68                     69
                      A                      A                      A
 Frequencies --   1622.6844              1655.9422              1703.7237
 Red. masses --      5.6390                 6.0852                 7.5117
 Frc consts  --      8.7482                 9.8314                12.8466
 IR Inten    --     66.8453                38.0337                74.4554

                     70                     71                     72
                      A                      A                      A
 Frequencies --   3073.0393              3136.7293              3143.6254
 Red. masses --      1.0856                 1.0837                 1.0835
 Frc consts  --      6.0405                 6.2825                 6.3090
 IR Inten    --     55.3506                 5.3830                 3.7974

                     73                     74                     75
                      A                      A                      A
 Frequencies --   3146.0833              3157.8747              3160.6345
 Red. masses --      1.0840                 1.0899                 1.0878
 Frc consts  --      6.3216                 6.4039                 6.4022
 IR Inten    --      7.3605                 6.9953                 4.9613

                     76                     77                     78
                      A                      A                      A
 Frequencies --   3162.4552              3164.0872              3173.0571
 Red. masses --      1.0884                 1.0884                 1.0860
 Frc consts  --      6.4133                 6.4199                 6.4424
 IR Inten    --      1.1464                11.6929                13.2712

                     79                     80                     81
                      A                      A                      A
 Frequencies --   3179.1389              3458.8323              3797.3861
 Red. masses --      1.0939                 1.0750                 1.0680
 Frc consts  --      6.5141                 7.5771                 9.0736
 IR Inten    --     21.5516                 1.7414                48.3799

 - Thermochemistry -
 -------------------
 Temperature   298.150 Kelvin.  Pressure   1.00000 Atm.
 Atom     1 has atomic number  8 and mass  15.99491

 Molecular mass:   264.03911 amu.
 Principal axes and moments of inertia in atomic units:
                           1         2         3
     Eigenvalues --  2691.659386807.010308224.50123
           X            0.99991   0.00782  -0.01076
           Y           -0.00789   0.99995  -0.00649
           Z            0.01070   0.00658   0.99992
 This molecule is an asymmetric top.
 Rotational symmetry number  1.
 Warning -- assumption of classical behavior for rotation
           may cause significant error
 Rotational temperatures (Kelvin)      0.03218     0.01272     0.01053
 Rotational constants (GHZ):           0.67049     0.26513     0.21943
 Zero-point vibrational energy     576362.7 (Joules/Mol)
                                  137.75398 (Kcal/Mol)
 Warning -- explicit consideration of  26 degrees of freedom as
           vibrations may cause significant error
 Vibrational temperatures:     54.37    85.62   114.88   150.99   168.23
          (Kelvin)            220.58   244.65   270.19   327.19   330.89
                              391.56   416.96   426.33   462.85   490.22
                              501.04   544.98   550.98   586.95   636.03
                              649.38   678.09   689.43   743.98   824.19
                              880.53   903.18  1040.41  1058.67  1096.84
                             1122.49  1162.64  1175.79  1249.99  1269.25
                             1291.68  1319.67  1347.17  1366.03  1422.16
                             1426.92  1451.39  1475.90  1499.05  1518.62
                             1525.73  1592.14  1633.87  1654.89  1720.20
                             1740.02  1775.54  1812.61  1843.93  1877.97
                             1894.98  1912.36  1944.91  1968.96  2021.29
                             2061.85  2101.79  2149.15  2258.98  2269.27
                             2316.31  2334.68  2382.53  2451.28  4421.42
                             4513.05  4522.98  4526.51  4543.48  4547.45
                             4550.07  4552.42  4565.32  4574.07  4976.49
                             5463.59

 Zero-point correction=                           0.219525 (Hartree/Particle)
 Thermal correction to Energy=                    0.235512
 Thermal correction to Enthalpy=                  0.236456
 Thermal correction to Gibbs Free Energy=         0.176158
 Sum of electronic and zero-point Energies=          -1445.226641
 Sum of electronic and thermal Energies=             -1445.210655
 Sum of electronic and thermal Enthalpies=           -1445.209710
 Sum of electronic and thermal Free Energies=        -1445.270008

                     E (Thermal)             CV                S
                      KCal/Mol        Cal/Mol-Kelvin    Cal/Mol-Kelvin
 Total                  147.786             61.603            126.907
 Electronic               0.000              0.000              0.000
 Translational            0.889              2.981             42.612
 Rotational               0.889              2.981             33.377
 Vibrational            146.008             55.641             50.918
 Vibration     1          0.594              1.982              5.372
 Vibration     2          0.597              1.974              4.473
 Vibration     3          0.600              1.963              3.895
 Vibration     4          0.605              1.945              3.360
 Vibration     5          0.608              1.935              3.151
 Vibration     6          0.619              1.899              2.631
 Vibration     7          0.625              1.879              2.435
 Vibration     8          0.632              1.857              2.249
 Vibration     9          0.651              1.799              1.899
 Vibration    10          0.652              1.795              1.879
 Vibration    11          0.675              1.725              1.583
 Vibration    12          0.686              1.693              1.475
 Vibration    13          0.690              1.681              1.438
 Vibration    14          0.707              1.632              1.301
 Vibration    15          0.720              1.594              1.209
 Vibration    16          0.726              1.579              1.174
 Vibration    17          0.749              1.515              1.044
 Vibration    18          0.752              1.507              1.027
 Vibration    19          0.773              1.453              0.934
 Vibration    20          0.802              1.378              0.820
 Vibration    21          0.810              1.358              0.792
 Vibration    22          0.828              1.314              0.734
 Vibration    23          0.836              1.296              0.712
 Vibration    24          0.872              1.212              0.617
 Vibration    25          0.929              1.090              0.499
 Vibration    26          0.971              1.006              0.429

 Optimization completed.
    -- Stationary point found.
 Normal termination of Gaussian 16 at Tue May 16 20:28:12 2023.
