 Gaussian 16, Revision A.03,
 Gaussian 16:  ES64L-G16RevA.03 25-Dec-2016

 -----------------------------
 # opt freq b3lyp/6-31g(2df,p)
 -----------------------------

 -------------------
 Title Card Required
 -------------------
 Symbolic Z-matrix:
 Charge =  0 Multiplicity = 1

 SCF Done:  E(RB3LYP) =  -778.126687118     A.U. after   21 cycles
 SCF Done:  E(RB3LYP) =  -778.148552670     A.U. after   13 cycles
 SCF Done:  E(RB3LYP) =  -778.157028440     A.U. after   16 cycles
 SCF Done:  E(RB3LYP) =  -778.160958723     A.U. after   16 cycles
 SCF Done:  E(RB3LYP) =  -778.162057170     A.U. after   13 cycles
 SCF Done:  E(RB3LYP) =  -778.162572320     A.U. after   13 cycles
 SCF Done:  E(RB3LYP) =  -778.162918040     A.U. after   13 cycles
 SCF Done:  E(RB3LYP) =  -778.163242337     A.U. after   13 cycles
 SCF Done:  E(RB3LYP) =  -778.164798605     A.U. after   13 cycles
 SCF Done:  E(RB3LYP) =  -778.121608750     A.U. after   15 cycles
 SCF Done:  E(RB3LYP) =  -778.178928974     A.U. after   10 cycles
 SCF Done:  E(RB3LYP) =  -778.178936010     A.U. after    9 cycles
 SCF Done:  E(RB3LYP) =  -778.178939127     A.U. after    9 cycles
 SCF Done:  E(RB3LYP) =  -778.178940650     A.U. after    8 cycles
 SCF Done:  E(RB3LYP) =  -778.178941090     A.U. after    8 cycles
 SCF Done:  E(RB3LYP) =  -778.178941257     A.U. after    7 cycles
 SCF Done:  E(RB3LYP) =  -778.178941343     A.U. after    7 cycles
 SCF Done:  E(RB3LYP) =  -778.178941394     A.U. after    7 cycles
 SCF Done:  E(RB3LYP) =  -778.178941414     A.U. after    6 cycles
 Optimization completed.
    -- Stationary point found.
 Normal termination of Gaussian 16 at Thu May 18 14:58:53 2023.

 ----------------------------------------------------------------------
 #N Geom=AllCheck Guess=TCheck SCRF=Check GenChk RB3LYP/6-31G(2df,p) Fr
 eq
 ----------------------------------------------------------------------

 Structure from the checkpoint file:  "ONCCNNNNdCC1dCCdCCdCCdC1.chk"
 -------------------
 Title Card Required
 -------------------
 Charge =  0 Multiplicity = 1

                         Standard orientation:
 ---------------------------------------------------------------------
 Center     Atomic      Atomic             Coordinates (Angstroms)
 Number     Number       Type             X           Y           Z
 ---------------------------------------------------------------------
      1          8           0       -7.917119    0.059054    0.085045
      2          7           0       -6.669432    0.505306    0.649188
      3          6           0       -5.595838   -0.054423   -0.172688
      4          6           0       -4.246908    0.276339    0.463105
      5          7           0       -3.173172   -0.316577   -0.335352
      6          7           0       -1.891933    0.130396    0.211837
      7          7           0       -0.909500   -0.611968   -0.480570
      8          7           0        0.321213   -0.054742   -0.393150
      9          6           0        1.339494   -0.823216   -0.530048
     10          6           0        2.719183   -0.320445   -0.562590
     11          6           0        2.978933    0.997120   -0.688421
     12          6           0        4.276008    1.664606   -0.770377
     13          6           0        5.335764    1.535638    0.041928
     14          6           0        5.465322    0.682137    1.229387
     15          6           0        5.225210   -0.630587    1.321429
     16          6           0        4.800120   -1.528432    0.237279
     17          6           0        3.745363   -1.391738   -0.569179
     18          1           0       -8.365712    0.888665   -0.110570
     19          1           0       -6.647131    0.036979    1.554621
     20          1           0       -5.667609    0.410143   -1.163183
     21          1           0       -5.690518   -1.140877   -0.310886
     22          1           0       -4.199831   -0.166671    1.469380
     23          1           0       -4.140147    1.364740    0.585257
     24          1           0       -3.193078    0.119821   -1.256465
     25          1           0       -1.915368   -0.187970    1.185932
     26          1           0       -0.957075   -1.622186   -0.309362
     27          1           0        1.215010   -1.910713   -0.625645
     28          1           0        2.113967    1.648213   -0.804350
     29          1           0        4.337155    2.434715   -1.539825
     30          1           0        6.180564    2.201149   -0.134170
     31          1           0        5.866724    1.183786    2.109944
     32          1           0        5.444767   -1.121753    2.269089
     33          1           0        5.402687   -2.430401    0.126423
     34          1           0        3.556388   -2.188968   -1.289168
 ---------------------------------------------------------------------

 SCF Done:  E(RB3LYP) =  -778.178941414     A.U. after    1 cycles

 The electronic state is 1-A.
 Alpha  occ. eigenvalues --  -19.15928 -14.38791 -14.37743 -14.36692 -14.35472
 Alpha  occ. eigenvalues --  -14.34834 -10.21660 -10.21104 -10.20994 -10.19211
 Alpha  occ. eigenvalues --  -10.18644 -10.18558 -10.18541 -10.18461 -10.18419
 Alpha  occ. eigenvalues --  -10.18338 -10.17909  -1.05182  -1.04085  -0.95470
 Alpha  occ. eigenvalues --   -0.86095  -0.83736  -0.82262  -0.78283  -0.77486
 Alpha  occ. eigenvalues --   -0.73176  -0.69265  -0.67766  -0.66288  -0.61901
 Alpha  occ. eigenvalues --   -0.60665  -0.56704  -0.56225  -0.53589  -0.51054
 Alpha  occ. eigenvalues --   -0.50108  -0.49667  -0.49203  -0.48252  -0.45476
 Alpha  occ. eigenvalues --   -0.44920  -0.44630  -0.44137  -0.43371  -0.43113
 Alpha  occ. eigenvalues --   -0.41752  -0.40109  -0.38735  -0.37835  -0.36250
 Alpha  occ. eigenvalues --   -0.35981  -0.35158  -0.32913  -0.32711  -0.30958
 Alpha  occ. eigenvalues --   -0.28547  -0.28020  -0.27474  -0.26690  -0.24390
 Alpha  occ. eigenvalues --   -0.23020  -0.20952  -0.18846
 Alpha virt. eigenvalues --   -0.05662  -0.00120   0.03556   0.06032   0.07410
 Alpha virt. eigenvalues --    0.07917   0.08358   0.09276   0.10135   0.10494
 Alpha virt. eigenvalues --    0.11070   0.12596   0.13534   0.14038   0.15078

 Mulliken charges:
               1
     1  O   -0.417965
     2  N   -0.224723
     3  C   -0.104906
     4  C   -0.140011
     5  N   -0.285971
     6  N   -0.219367
     7  N   -0.209906
     8  N   -0.116162
     9  C   -0.045515
    10  C    0.199578
    11  C   -0.180827
    12  C   -0.094299
    13  C   -0.103085
    14  C   -0.089097
    15  C   -0.114968
    16  C   -0.085585
    17  C   -0.170244
    18  H    0.301477
    19  H    0.236589
    20  H    0.107540
    21  H    0.108946
    22  H    0.096089
    23  H    0.114921
    24  H    0.238913
    25  H    0.230435
    26  H    0.221332
    27  H    0.065732
    28  H    0.115019
    29  H    0.094568
    30  H    0.093752
    31  H    0.094798
    32  H    0.092934
    33  H    0.094917
    34  H    0.095089
 Sum of Mulliken charges =   0.00000

 Dipole moment (field-independent basis, Debye):
    X=             -0.5354    Y=             -1.0265    Z=              0.9708  Tot=              1.5109
 Quadrupole moment (field-independent basis, Debye-Ang):
   XX=            -94.3811   YY=            -96.0475   ZZ=            -95.7341
   XY=             -5.6300   XZ=              0.3463   YZ=             -3.0798

  Exact polarizability: 279.316  12.388 150.834  19.041  -4.368 120.179
 Approx polarizability: 343.954  24.104 257.948  38.349  -9.385 195.824

                      1                      2                      3
                      A                      A                      A
 Frequencies --     13.7639                25.1892                34.5430
 Red. masses --      5.9241                 4.1522                 2.4857
 Frc consts  --      0.0007                 0.0016                 0.0017
 IR Inten    --      0.3451                 0.4915                 1.0729

                      4                      5                      6
                      A                      A                      A
 Frequencies --     55.7312                71.6810                88.5506
 Red. masses --      4.4788                 4.8390                 3.1747
 Frc consts  --      0.0082                 0.0146                 0.0147
 IR Inten    --      1.9611                 0.4798                 9.5705

                      7                      8                      9
                      A                      A                      A
 Frequencies --    105.0218               120.4877               140.0291
 Red. masses --      2.9358                 3.9086                 2.7017
 Frc consts  --      0.0191                 0.0334                 0.0312
 IR Inten    --      4.1458                 4.7358                 2.9897

                     10                     11                     12
                      A                      A                      A
 Frequencies --    171.4749               180.1659               192.2087
 Red. masses --      4.4570                 5.4429                 3.2361
 Frc consts  --      0.0772                 0.1041                 0.0704
 IR Inten    --      4.1958                 0.2921                 4.1931

                     13                     14                     15
                      A                      A                      A
 Frequencies --    206.9473               254.8398               272.1173
 Red. masses --      3.4563                 5.3101                 5.2220
 Frc consts  --      0.0872                 0.2032                 0.2278
 IR Inten    --     12.1367                 2.7054                 2.6696

                     16                     17                     18
                      A                      A                      A
 Frequencies --    284.6033               318.4335               327.9566
 Red. masses --      4.3445                 2.8372                 1.1484
 Frc consts  --      0.2073                 0.1695                 0.0728
 IR Inten    --      0.2562                 2.9991                94.6577

                     19                     20                     21
                      A                      A                      A
 Frequencies --    351.3703               367.2876               416.4313
 Red. masses --      4.7915                 2.4682                 5.2242
 Frc consts  --      0.3485                 0.1962                 0.5338
 IR Inten    --      0.1969                 0.8792                 2.5519

                     22                     23                     24
                      A                      A                      A
 Frequencies --    462.9561               506.7056               539.7161
 Red. masses --      3.8360                 3.1690                 3.7274
 Frc consts  --      0.4844                 0.4794                 0.6397
 IR Inten    --     62.5727                 8.7681                 9.8399

                     25                     26                     27
                      A                      A                      A
 Frequencies --    587.3392               662.0837               671.4627
 Red. masses --      5.0188                 2.7642                 3.0398
 Frc consts  --      1.0201                 0.7139                 0.8075
 IR Inten    --     73.9046                10.1459                 8.1568

                     28                     29                     30
                      A                      A                      A
 Frequencies --    680.9466               739.0302               752.8242
 Red. masses --      1.8624                 1.8524                 1.9295
 Frc consts  --      0.5088                 0.5961                 0.6443
 IR Inten    --     50.1741               163.2014               119.6178

                     31                     32                     33
                      A                      A                      A
 Frequencies --    802.0023               809.8246               825.0449
 Red. masses --      2.8327                 2.0488                 1.0988
 Frc consts  --      1.0735                 0.7916                 0.4407
 IR Inten    --     14.0958                18.5568                10.7545

                     34                     35                     36
                      A                      A                      A
 Frequencies --    844.5844               897.0946               913.9375
 Red. masses --      2.7016                 2.2497                 1.8727
 Frc consts  --      1.1354                 1.0667                 0.9216
 IR Inten    --      6.0866                46.9420                 0.5547

                     37                     38                     39
                      A                      A                      A
 Frequencies --    925.7960               931.1745               950.9945
 Red. masses --      2.8692                 1.5747                 2.4865
 Frc consts  --      1.4489                 0.8044                 1.3249
 IR Inten    --      1.2185                39.0929                 2.5131

                     40                     41                     42
                      A                      A                      A
 Frequencies --    962.3329               971.4897               990.2857
 Red. masses --      1.6900                 1.8247                 1.7290
 Frc consts  --      0.9221                 1.0147                 0.9990
 IR Inten    --     12.5646                 2.1074                15.7605

                     43                     44                     45
                      A                      A                      A
 Frequencies --    993.6803               999.3839              1001.0204
 Red. masses --      1.6186                 1.5233                 1.4363
 Frc consts  --      0.9416                 0.8964                 0.8480
 IR Inten    --     16.8115                 1.7301                 1.0808

                     46                     47                     48
                      A                      A                      A
 Frequencies --   1019.1989              1061.5030              1073.5498
 Red. masses --      1.9388                 2.6148                 2.2208
 Frc consts  --      1.1866                 1.7359                 1.5080
 IR Inten    --     93.6732                 4.0977                 3.2946

                     49                     50                     51
                      A                      A                      A
 Frequencies --   1080.4858              1102.7219              1103.1952
 Red. masses --      2.3595                 2.7244                 4.5215
 Frc consts  --      1.6230                 1.9519                 3.2421
 IR Inten    --     55.7524                13.7978                18.3961

                     52                     53                     54
                      A                      A                      A
 Frequencies --   1140.8670              1163.9295              1204.9766
 Red. masses --      1.9343                 2.8762                 2.8822
 Frc consts  --      1.4833                 2.2957                 2.4657
 IR Inten    --      1.6043                15.6323                42.2588

                     55                     56                     57
                      A                      A                      A
 Frequencies --   1237.4894              1243.0926              1246.7556
 Red. masses --      1.5340                 1.0441                 1.1137
 Frc consts  --      1.3840                 0.9506                 1.0199
 IR Inten    --     25.6483                 0.4929                 0.8659

                     58                     59                     60
                      A                      A                      A
 Frequencies --   1264.4476              1268.6640              1299.8772
 Red. masses --      1.1502                 1.3336                 1.1408
 Frc consts  --      1.0835                 1.2646                 1.1357
 IR Inten    --      3.6452                 7.3948                 0.7752

                     61                     62                     63
                      A                      A                      A
 Frequencies --   1322.7867              1348.5386              1383.6884
 Red. masses --      1.2920                 1.3490                 1.2825
 Frc consts  --      1.3320                 1.4454                 1.4468
 IR Inten    --      5.9736                10.8866                13.6837

                     64                     65                     66
                      A                      A                      A
 Frequencies --   1388.3919              1399.4536              1411.6936
 Red. masses --      1.2182                 1.3802                 1.4246
 Frc consts  --      1.3836                 1.5926                 1.6727
 IR Inten    --     43.3318                 5.0950                 0.3296

                     67                     68                     69
                      A                      A                      A
 Frequencies --   1433.5950              1442.5557              1461.2380
 Red. masses --      1.4601                 1.3021                 1.7784
 Frc consts  --      1.7681                 1.5965                 2.2373
 IR Inten    --      1.1915                 4.5113                 0.6221

                     70                     71                     72
                      A                      A                      A
 Frequencies --   1492.9538              1499.3398              1515.4100
 Red. masses --      1.2880                 1.1276                 1.0763
 Frc consts  --      1.6915                 1.4936                 1.4563
 IR Inten    --      9.1649                 7.8447                 2.0806

                     73                     74                     75
                      A                      A                      A
 Frequencies --   1528.6365              1542.9275              1636.7616
 Red. masses --      1.0908                 1.1747                 6.8131
 Frc consts  --      1.5018                 1.6477                10.7539
 IR Inten    --     11.6484                33.9101                46.9253

                     76                     77                     78
                      A                      A                      A
 Frequencies --   1687.2139              1693.9588              1707.3908
 Red. masses --      6.4645                 7.3615                 6.2355
 Frc consts  --     10.8424                12.4458                10.7100
 IR Inten    --     17.7168                 6.0966                 0.3099

                     79                     80                     81
                      A                      A                      A
 Frequencies --   1729.9486              2984.2962              3004.6041
 Red. masses --      9.7203                 1.0554                 1.0704
 Frc consts  --     17.1394                 5.5381                 5.6931
 IR Inten    --      0.9797                32.2218                32.4046

                     82                     83                     84
                      A                      A                      A
 Frequencies --   3015.1672              3015.7082              3062.1897
 Red. masses --      1.0847                 1.0939                 1.1014
 Frc consts  --      5.8099                 5.8614                 6.0851
 IR Inten    --     42.7944                53.0531                42.8351

                     85                     86                     87
                      A                      A                      A
 Frequencies --   3104.3529              3108.6409              3113.6193
 Red. masses --      1.0803                 1.0805                 1.0817
 Frc consts  --      6.1337                 6.1520                 6.1788
 IR Inten    --      4.7332                 2.6405                 0.7023

                     88                     89                     90
                      A                      A                      A
 Frequencies --   3126.1563              3131.5020              3139.1118
 Red. masses --      1.0919                 1.0911                 1.0929
 Frc consts  --      6.2871                 6.3043                 6.3453
 IR Inten    --     39.6636                53.4310                47.4980

                     91                     92                     93
                      A                      A                      A
 Frequencies --   3144.2545              3336.2593              3355.4626
 Red. masses --      1.0881                 1.0725                 1.0754
 Frc consts  --      6.3381                 7.0337                 7.1339
 IR Inten    --      6.4387                25.2328                14.0271

                     94                     95                     96
                      A                      A                      A
 Frequencies --   3449.4829              3462.6694              3803.3434
 Red. masses --      1.0749                 1.0746                 1.0683
 Frc consts  --      7.5359                 7.5916                 9.1049
 IR Inten    --      1.6397                 0.7009                43.2306

 - Thermochemistry -
 -------------------
 Temperature   298.150 Kelvin.  Pressure   1.00000 Atm.
 Atom     1 has atomic number  8 and mass  15.99491

 Molecular mass:   235.14331 amu.
 Principal axes and moments of inertia in atomic units:
                           1         2         3
     Eigenvalues --  1064.72527********************
           X            1.00000  -0.00036   0.00069
           Y            0.00036   0.99991  -0.01332
           Z           -0.00069   0.01332   0.99991
 This molecule is an asymmetric top.
 Rotational symmetry number  1.
 Warning -- assumption of classical behavior for rotation
           may cause significant error
 Rotational temperatures (Kelvin)      0.08135     0.00502     0.00493
 Rotational constants (GHZ):           1.69503     0.10452     0.10263
 Zero-point vibrational energy     741173.9 (Joules/Mol)
                                  177.14482 (Kcal/Mol)
 Warning -- explicit consideration of  25 degrees of freedom as
           vibrations may cause significant error
 Vibrational temperatures:     19.80    36.24    49.70    80.18   103.13
          (Kelvin)            127.40   151.10   173.35   201.47   246.71
                              259.22   276.55   297.75   366.66   391.52
                              409.48   458.15   471.86   505.54   528.44
                              599.15   666.09   729.04   776.53   845.05
                              952.59   966.09   979.73  1063.30  1083.15
                             1153.90  1165.16  1187.06  1215.17  1290.72
                             1314.95  1332.01  1339.75  1368.27  1384.58
                             1397.76  1424.80  1429.68  1437.89  1440.25
                             1466.40  1527.27  1544.60  1554.58  1586.57
                             1587.25  1641.45  1674.63  1733.69  1780.47
                             1788.53  1793.80  1819.26  1825.32  1870.23
                             1903.19  1940.25  1990.82  1997.59  2013.50
                             2031.11  2062.62  2075.52  2102.40  2148.03
                             2157.22  2180.34  2199.37  2219.93  2354.93
                             2427.52  2437.23  2456.55  2489.01  4293.74
                             4322.96  4338.15  4338.93  4405.81  4466.47
                             4472.64  4479.80  4497.84  4505.53  4516.48
                             4523.88  4800.13  4827.76  4963.04  4982.01
                             5472.16

 Zero-point correction=                           0.282298 (Hartree/Particle)
 Thermal correction to Energy=                    0.300308
 Thermal correction to Enthalpy=                  0.301252
 Thermal correction to Gibbs Free Energy=         0.232982
 Sum of electronic and zero-point Energies=           -777.896643
 Sum of electronic and thermal Energies=              -777.878633
 Sum of electronic and thermal Enthalpies=            -777.877689
 Sum of electronic and thermal Free Energies=         -777.945959

                     E (Thermal)             CV                S
                      KCal/Mol        Cal/Mol-Kelvin    Cal/Mol-Kelvin
 Total                  188.446             65.152            143.686
 Electronic               0.000              0.000              0.000
 Translational            0.889              2.981             42.267
 Rotational               0.889              2.981             34.135
 Vibrational            186.669             59.190             67.284
 Vibration     1          0.593              1.986              7.376
 Vibration     2          0.593              1.985              6.176
 Vibration     3          0.594              1.983              5.550
 Vibration     4          0.596              1.975              4.603
 Vibration     5          0.598              1.968              4.107
 Vibration     6          0.601              1.957              3.692
 Vibration     7          0.605              1.945              3.359
 Vibration     8          0.609              1.932              3.093
 Vibration     9          0.615              1.913              2.803
 Vibration    10          0.626              1.878              2.419
 Vibration    11          0.629              1.867              2.327
 Vibration    12          0.634              1.851              2.206
 Vibration    13          0.641              1.830              2.070
 Vibration    14          0.665              1.755              1.697
 Vibration    15          0.675              1.725              1.583
 Vibration    16          0.683              1.702              1.506
 Vibration    17          0.705              1.638              1.318
 Vibration    18          0.711              1.620              1.270
 Vibration    19          0.728              1.572              1.160
 Vibration    20          0.740              1.540              1.091
 Vibration    21          0.780              1.435              0.904
 Vibration    22          0.821              1.332              0.758
 Vibration    23          0.862              1.235              0.642
 Vibration    24          0.895              1.162              0.566
 Vibration    25          0.944              1.059              0.472

                           ! Non-Optimized Parameters !
 Normal termination of Gaussian 16 at Thu May 18 17:17:18 2023.
