 Gaussian 16, Revision A.03,
 Gaussian 16:  ES64L-G16RevA.03 25-Dec-2016

 -----------------------------
 # opt freq b3lyp/6-31g(2df,p)
 -----------------------------

 -------------------
 Title Card Required
 -------------------
 Symbolic Z-matrix:
 Charge =  0 Multiplicity = 1

 SCF Done:  E(RB3LYP) =  -670.200900794     A.U. after   23 cycles
 SCF Done:  E(RB3LYP) =  -670.376202683     A.U. after   19 cycles
 SCF Done:  E(RB3LYP) =  -670.481648685     A.U. after   30 cycles
 SCF Done:  E(RB3LYP) =  -670.639455537     A.U. after   34 cycles
 SCF Done:  E(RB3LYP) =  -670.567611879     A.U. after   20 cycles
 SCF Done:  E(RB3LYP) =  -670.696883411     A.U. after   19 cycles
 SCF Done:  E(RB3LYP) =  -670.749321871     A.U. after   21 cycles
 SCF Done:  E(RB3LYP) =  -670.812230774     A.U. after   22 cycles
 SCF Done:  E(RB3LYP) =  -670.840453809     A.U. after   21 cycles
 SCF Done:  E(RB3LYP) =  -670.845001655     A.U. after   23 cycles
 SCF Done:  E(RB3LYP) =  -671.007086938     A.U. after   10 cycles
 SCF Done:  E(RB3LYP) =  -671.007087817     A.U. after    9 cycles
 SCF Done:  E(RB3LYP) =  -671.007088088     A.U. after   10 cycles
 SCF Done:  E(RB3LYP) =  -671.007088227     A.U. after    7 cycles
 SCF Done:  E(RB3LYP) =  -671.007088303     A.U. after    7 cycles
 SCF Done:  E(RB3LYP) =  -671.007088344     A.U. after    7 cycles
 SCF Done:  E(RB3LYP) =  -671.007088380     A.U. after    9 cycles
 SCF Done:  E(RB3LYP) =  -671.007088405     A.U. after   10 cycles
 SCF Done:  E(RB3LYP) =  -671.007088418     A.U. after    9 cycles
 Optimization completed.
    -- Stationary point found.
 Normal termination of Gaussian 16 at Fri May 19 17:00:00 2023.

 ----------------------------------------------------------------------
 #N Geom=AllCheck Guess=TCheck SCRF=Check GenChk RB3LYP/6-31G(2df,p) Fr
 eq
 ----------------------------------------------------------------------

 Structure from the checkpoint file:  "ONdCCC1dCCdC2CdCCdCCdCCdC21.chk"
 -------------------
 Title Card Required
 -------------------
 Charge =  0 Multiplicity = 1

                         Standard orientation:
 ---------------------------------------------------------------------
 Center     Atomic      Atomic             Coordinates (Angstroms)
 Number     Number       Type             X           Y           Z
 ---------------------------------------------------------------------
      1          8           0        5.801752   -0.478057   -1.709080
      2          7           0        5.050317   -0.757206   -0.562108
      3          6           0        4.356219    0.246411   -0.206078
      4          6           0        3.479799    0.150705    1.015236
      5          6           0        2.039463    0.430443    0.703312
      6          6           0        1.544723    1.688225    0.243901
      7          6           0        0.181260    1.601433    0.050016
      8          6           0       -0.240888    0.272805    0.374562
      9          6           0       -1.485838   -0.287239    0.323777
     10          6           0       -2.703069    0.342355   -0.075152
     11          6           0       -3.886580   -0.311637   -0.090220
     12          6           0       -5.170778    0.277853   -0.487272
     13          6           0       -6.262584   -0.584430   -1.105171
     14          6           0       -6.475776   -0.228252    0.111318
     15          6           0        0.896540   -1.828118    1.186308
     16          6           0        0.962370   -0.485209    0.802567
     17          1           0        6.256265   -1.312800   -1.865934
     18          1           0        4.383611    1.177493   -0.777010
     19          1           0        3.831526    0.884219    1.755944
     20          1           0        3.587726   -0.845708    1.448734
     21          1           0        2.147160    2.574107    0.083820
     22          1           0       -0.457475    2.407897   -0.286281
     23          1           0       -1.516091   -1.335272    0.626221
     24          1           0       -2.675939    1.387490   -0.377422
     25          1           0       -3.910472   -1.358110    0.212359
     26          1           0       -5.109501    1.327425   -0.783925
     27          1           0       -6.548271   -1.105435   -2.002090
     28          1           0       -7.075512   -0.224732    1.004537
     29          1           0        1.911569   -2.163751    1.485822
 ---------------------------------------------------------------------

 SCF Done:  E(RB3LYP) =  -671.007088418     A.U. after    1 cycles

 The electronic state is 1-A.
 Alpha  occ. eigenvalues --  -19.17248 -14.37411 -10.22874 -10.22595 -10.22466
 Alpha  occ. eigenvalues --  -10.21776 -10.21165 -10.20953 -10.20790 -10.20034
 Alpha  occ. eigenvalues --  -10.19846 -10.19808 -10.19135 -10.18501 -10.16389
 Alpha  occ. eigenvalues --  -10.14104  -1.07398  -0.89986  -0.87722  -0.86041
 Alpha  occ. eigenvalues --   -0.81503  -0.76609  -0.73967  -0.71079  -0.65567
 Alpha  occ. eigenvalues --   -0.61744  -0.59659  -0.58868  -0.57754  -0.56757
 Alpha  occ. eigenvalues --   -0.53607  -0.53156  -0.51165  -0.49970  -0.47066
 Alpha  occ. eigenvalues --   -0.46205  -0.45228  -0.43433  -0.43257  -0.40908
 Alpha  occ. eigenvalues --   -0.40042  -0.38860  -0.37918  -0.37469  -0.37216
 Alpha  occ. eigenvalues --   -0.36539  -0.35384  -0.35092  -0.31966  -0.29763
 Alpha  occ. eigenvalues --   -0.28319  -0.27338  -0.25080  -0.23741  -0.22070
 Alpha  occ. eigenvalues --   -0.16573
 Alpha virt. eigenvalues --   -0.09984  -0.03799  -0.00947   0.00970   0.03259
 Alpha virt. eigenvalues --    0.08034   0.09071   0.09402   0.11120   0.11246
 Alpha virt. eigenvalues --    0.11797   0.12452   0.13029   0.13805   0.14175

 Mulliken charges:
               1
     1  O   -0.389619
     2  N   -0.075920
     3  C    0.079370
     4  C   -0.373760
     5  C    0.216916
     6  C   -0.189805
     7  C   -0.215362
     8  C    0.227710
     9  C   -0.130756
    10  C   -0.097331
    11  C   -0.027300
    12  C   -0.092525
    13  C   -0.133666
    14  C   -0.133866
    15  C   -0.430596
    16  C    0.071433
    17  H    0.308443
    18  H    0.102831
    19  H    0.124050
    20  H    0.136209
    21  H    0.103337
    22  H    0.110398
    23  H    0.129567
    24  H    0.090685
    25  H    0.106086
    26  H    0.086236
    27  H    0.161995
    28  H    0.161806
    29  H    0.073434
 Sum of Mulliken charges =  -0.00000

 Dipole moment (field-independent basis, Debye):
    X=             -3.9760    Y=              3.2336    Z=             -1.3144  Tot=              5.2907
 Quadrupole moment (field-independent basis, Debye-Ang):
   XX=            -61.0652   YY=            -94.1046   ZZ=            -92.4187
   XY=              2.3902   XZ=              1.6276   YZ=              5.7645

  Exact polarizability: 382.341  18.159 151.569  13.452  -9.215 107.872
 Approx polarizability: 562.087  71.508 296.701  22.015 -17.274 182.025

                      1                      2                      3
                      A                      A                      A
 Frequencies --     14.5073                30.3655                51.6160
 Red. masses --      5.6125                 5.5272                 4.3550
 Frc consts  --      0.0007                 0.0030                 0.0068
 IR Inten    --      0.1844                 3.1116                 0.2379

                      4                      5                      6
                      A                      A                      A
 Frequencies --     61.1281                78.2282               107.8835
 Red. masses --      4.3720                 3.1276                 3.4045
 Frc consts  --      0.0096                 0.0113                 0.0233
 IR Inten    --      0.5273                 0.4081                 0.6521

                      7                      8                      9
                      A                      A                      A
 Frequencies --    138.1894               179.1913               196.3172
 Red. masses --      3.6460                 3.7569                 4.5954
 Frc consts  --      0.0410                 0.0711                 0.1044
 IR Inten    --      0.2797                 1.9774                 1.3390

                     10                     11                     12
                      A                      A                      A
 Frequencies --    234.0995               235.9808               273.4415
 Red. masses --      5.8756                 4.1521                 5.3746
 Frc consts  --      0.1897                 0.1362                 0.2368
 IR Inten    --      0.9208                 3.4845                 5.9287

                     13                     14                     15
                      A                      A                      A
 Frequencies --    288.0300               305.0700               335.8418
 Red. masses --      4.0242                 2.4737                 2.5852
 Frc consts  --      0.1967                 0.1356                 0.1718
 IR Inten    --      3.4268                 1.5436                 2.8380

                     16                     17                     18
                      A                      A                      A
 Frequencies --    352.4140               416.7684               419.9335
 Red. masses --      3.6005                 1.3626                 2.2761
 Frc consts  --      0.2635                 0.1394                 0.2365
 IR Inten    --      2.7594                77.3508                61.6565

                     19                     20                     21
                      A                      A                      A
 Frequencies --    467.3684               469.1740               519.0737
 Red. masses --      2.2445                 3.3275                 1.7277
 Frc consts  --      0.2889                 0.4316                 0.2743
 IR Inten    --     18.0920                 0.3416                31.4863

                     22                     23                     24
                      A                      A                      A
 Frequencies --    564.5378               571.2451               639.1256
 Red. masses --      3.4707                 3.3506                 2.2494
 Frc consts  --      0.6517                 0.6442                 0.5414
 IR Inten    --      2.6432                 7.5400                66.5649

                     25                     26                     27
                      A                      A                      A
 Frequencies --    666.2434               704.8054               731.0572
 Red. masses --      1.7991                 3.6422                 2.3446
 Frc consts  --      0.4705                 1.0660                 0.7383
 IR Inten    --     65.4515                19.4760                 1.2805

                     28                     29                     30
                      A                      A                      A
 Frequencies --    749.5518               756.1578               813.4246
 Red. masses --      3.8242                 3.2552                 3.0087
 Frc consts  --      1.2659                 1.0966                 1.1729
 IR Inten    --     29.0794                 4.1964                 6.1957

                     31                     32                     33
                      A                      A                      A
 Frequencies --    838.2700               861.3559               887.1119
 Red. masses --      2.1571                 1.4519                 1.7761
 Frc consts  --      0.8931                 0.6347                 0.8235
 IR Inten    --     23.5986                 0.1888                39.2202

                     34                     35                     36
                      A                      A                      A
 Frequencies --    915.1470               920.9703               932.4775
 Red. masses --      1.8361                 2.2759                 1.3898
 Frc consts  --      0.9060                 1.1373                 0.7120
 IR Inten    --      0.8890                11.1064                 1.0745

                     37                     38                     39
                      A                      A                      A
 Frequencies --    939.8369               979.5115               983.9980
 Red. masses --      1.2408                 1.8749                 1.3246
 Frc consts  --      0.6458                 1.0599                 0.7556
 IR Inten    --     16.1674                48.7857                 0.1134

                     40                     41                     42
                      A                      A                      A
 Frequencies --   1005.7050              1008.0980              1045.3076
 Red. masses --      4.9634                 1.4455                 1.2846
 Frc consts  --      2.9578                 0.8655                 0.8270
 IR Inten    --     87.6963                36.2300                 9.5326

                     43                     44                     45
                      A                      A                      A
 Frequencies --   1059.5517              1076.3374              1079.7278
 Red. masses --      2.4965                 1.1973                 1.5882
 Frc consts  --      1.6513                 0.8173                 1.0909
 IR Inten    --    287.4817                23.5178                56.8345

                     46                     47                     48
                      A                      A                      A
 Frequencies --   1085.1456              1113.5153              1153.6302
 Red. masses --      3.0907                 1.4852                 3.1000
 Frc consts  --      2.1443                 1.0850                 2.4308
 IR Inten    --     67.3160               104.0533               149.8675

                     49                     50                     51
                      A                      A                      A
 Frequencies --   1181.1866              1201.4236              1215.6946
 Red. masses --      1.9113                 1.8987                 2.0518
 Frc consts  --      1.5712                 1.6147                 1.7866
 IR Inten    --     63.4702                 0.5136                 3.5442

                     52                     53                     54
                      A                      A                      A
 Frequencies --   1256.8771              1280.3042              1284.4499
 Red. masses --      1.3704                 1.4428                 1.2521
 Frc consts  --      1.2755                 1.3934                 1.2171
 IR Inten    --      9.3008                 4.2420                32.6782

                     55                     56                     57
                      A                      A                      A
 Frequencies --   1306.7251              1322.6215              1347.1476
 Red. masses --      1.4790                 1.5383                 1.9481
 Frc consts  --      1.4879                 1.5855                 2.0830
 IR Inten    --     56.7792                42.9406               177.5572

                     58                     59                     60
                      A                      A                      A
 Frequencies --   1381.6445              1399.2233              1420.8939
 Red. masses --      2.3780                 2.0151                 4.8944
 Frc consts  --      2.6746                 2.3245                 5.8220
 IR Inten    --     53.3898                20.3101               355.5742

                     61                     62                     63
                      A                      A                      A
 Frequencies --   1440.8666              1458.4379              1461.0658
 Red. masses --      1.3638                 1.4070                 1.8292
 Frc consts  --      1.6682                 1.7633                 2.3006
 IR Inten    --     45.5564                 8.1303                10.5412

                     64                     65                     66
                      A                      A                      A
 Frequencies --   1531.3537              1643.4704              1653.0492
 Red. masses --      5.4503                 6.9846                 5.4814
 Frc consts  --      7.5304                11.1152                 8.8250
 IR Inten    --    111.4926                17.9671               837.3508

                     67                     68                     69
                      A                      A                      A
 Frequencies --   1730.3813              1754.5299              2937.6246
 Red. masses --      6.6776                 5.0055                 1.0825
 Frc consts  --     11.7802                 9.0786                 5.5040
 IR Inten    --      0.7849                46.4191               159.3734

                     70                     71                     72
                      A                      A                      A
 Frequencies --   2999.0961              3070.6960              3096.7703
 Red. masses --      1.0686                 1.0847                 1.0882
 Frc consts  --      5.6628                 6.0259                 6.1485
 IR Inten    --     12.8544                28.0216                14.3480

                     73                     74                     75
                      A                      A                      A
 Frequencies --   3112.3987              3125.2487              3140.5952
 Red. masses --      1.0908                 1.0883                 1.0900
 Frc consts  --      6.2258                 6.2627                 6.3344
 IR Inten    --      9.1368                 5.5094                 1.8389

                     76                     77                     78
                      A                      A                      A
 Frequencies --   3149.2155              3199.9422              3222.4665
 Red. masses --      1.0855                 1.0883                 1.1000
 Frc consts  --      6.3428                 6.5658                 6.7302
 IR Inten    --     15.9151                 8.6753                10.3488

                     79                     80                     81
                      A                      A                      A
 Frequencies --   3268.2265              3320.3525              3816.2927
 Red. masses --      1.0841                 1.1527                 1.0676
 Frc consts  --      6.8227                 7.4876                 9.1609
 IR Inten    --      1.9880                 0.4333               104.6690

 - Thermochemistry -
 -------------------
 Temperature   298.150 Kelvin.  Pressure   1.00000 Atm.
 Atom     1 has atomic number  8 and mass  15.99491

 Molecular mass:   211.09971 amu.
 Principal axes and moments of inertia in atomic units:
                           1         2         3
     Eigenvalues --  1062.07908********************
           X            1.00000   0.00130   0.00287
           Y           -0.00106   0.99649  -0.08366
           Z           -0.00297   0.08366   0.99649
 This molecule is an asymmetric top.
 Rotational symmetry number  1.
 Warning -- assumption of classical behavior for rotation
           may cause significant error
 Rotational temperatures (Kelvin)      0.08155     0.00728     0.00721
 Rotational constants (GHZ):           1.69925     0.15164     0.15029
 Zero-point vibrational energy     592072.2 (Joules/Mol)
                                  141.50865 (Kcal/Mol)
 Warning -- explicit consideration of  23 degrees of freedom as
           vibrations may cause significant error
 Vibrational temperatures:     20.87    43.69    74.26    87.95   112.55
          (Kelvin)            155.22   198.82   257.82   282.46   336.82
                              339.52   393.42   414.41   438.93   483.20
                              507.05   599.64   604.19   672.44   675.04
                              746.83   812.24   821.89   919.56   958.58
                             1014.06  1051.83  1078.44  1087.94  1170.34
                             1206.08  1239.30  1276.36  1316.69  1325.07
                             1341.63  1352.22  1409.30  1415.75  1446.99
                             1450.43  1503.96  1524.46  1548.61  1553.49
                             1561.28  1602.10  1659.82  1699.46  1728.58
                             1749.11  1808.37  1842.07  1848.04  1880.09
                             1902.96  1938.24  1987.88  2013.17  2044.35
                             2073.09  2098.37  2102.15  2203.28  2364.59
                             2378.37  2489.63  2524.38  4226.59  4315.03
                             4418.05  4455.56  4478.05  4496.54  4518.62
                             4531.02  4604.00  4636.41  4702.25  4777.25
                             5490.79

 Zero-point correction=                           0.225508 (Hartree/Particle)
 Thermal correction to Energy=                    0.241426
 Thermal correction to Enthalpy=                  0.242370
 Thermal correction to Gibbs Free Energy=         0.179730
 Sum of electronic and zero-point Energies=           -670.781580
 Sum of electronic and thermal Energies=              -670.765662
 Sum of electronic and thermal Enthalpies=            -670.764718
 Sum of electronic and thermal Free Energies=         -670.827359

                     E (Thermal)             CV                S
                      KCal/Mol        Cal/Mol-Kelvin    Cal/Mol-Kelvin
 Total                  151.497             59.095            131.838
 Electronic               0.000              0.000              0.000
 Translational            0.889              2.981             41.945
 Rotational               0.889              2.981             33.384
 Vibrational            149.720             53.133             56.509
 Vibration     1          0.593              1.986              7.272
 Vibration     2          0.594              1.984              5.805
 Vibration     3          0.596              1.977              4.754
 Vibration     4          0.597              1.973              4.420
 Vibration     5          0.600              1.964              3.935
 Vibration     6          0.606              1.943              3.307
 Vibration     7          0.614              1.915              2.829
 Vibration     8          0.629              1.868              2.337
 Vibration     9          0.636              1.845              2.167
 Vibration    10          0.654              1.789              1.847
 Vibration    11          0.655              1.786              1.833
 Vibration    12          0.676              1.722              1.574
 Vibration    13          0.685              1.696              1.486
 Vibration    14          0.696              1.664              1.389
 Vibration    15          0.717              1.604              1.232
 Vibration    16          0.729              1.570              1.155
 Vibration    17          0.780              1.434              0.903
 Vibration    18          0.783              1.427              0.892
 Vibration    19          0.825              1.322              0.745
 Vibration    20          0.826              1.318              0.740
 Vibration    21          0.874              1.208              0.612
 Vibration    22          0.920              1.108              0.515
 Vibration    23          0.927              1.093              0.502

 Optimization completed.
    -- Stationary point found.
 Normal termination of Gaussian 16 at Fri May 19 18:43:23 2023.
