 Gaussian 16, Revision A.03,
 Gaussian 16:  ES64L-G16RevA.03 25-Dec-2016

 -----------------------------
 # opt freq b3lyp/6-31g(2df,p)
 -----------------------------

 -------------------
 Title Card Required
 -------------------
 Symbolic Z-matrix:
 Charge =  0 Multiplicity = 1

 SCF Done:  E(RB3LYP) =  -1284.14024544     A.U. after   25 cycles
 SCF Done:  E(RB3LYP) =  -1284.14650042     A.U. after   21 cycles
 SCF Done:  E(RB3LYP) =  -1284.25191161     A.U. after   19 cycles
 SCF Done:  E(RB3LYP) =  -1284.31204657     A.U. after   20 cycles
 SCF Done:  E(RB3LYP) =  -1284.35858708     A.U. after   16 cycles
 SCF Done:  E(RB3LYP) =  -1284.37717863     A.U. after   16 cycles
 SCF Done:  E(RB3LYP) =  -1284.42393528     A.U. after   17 cycles
 SCF Done:  E(RB3LYP) =  -1284.24659256     A.U. after   20 cycles
 SCF Done:  E(RB3LYP) =  -1284.41308197     A.U. after   16 cycles
 SCF Done:  E(RB3LYP) =  -1284.43371636     A.U. after   12 cycles
 SCF Done:  E(RB3LYP) =  -1284.48620484     A.U. after   12 cycles
 SCF Done:  E(RB3LYP) =  -1284.48622713     A.U. after   13 cycles
 SCF Done:  E(RB3LYP) =  -1284.48624659     A.U. after   12 cycles
 SCF Done:  E(RB3LYP) =  -1284.48625688     A.U. after   10 cycles
 SCF Done:  E(RB3LYP) =  -1284.48626129     A.U. after   10 cycles
 SCF Done:  E(RB3LYP) =  -1284.48626281     A.U. after    9 cycles
 SCF Done:  E(RB3LYP) =  -1284.48626345     A.U. after    9 cycles
 SCF Done:  E(RB3LYP) =  -1284.48626370     A.U. after    8 cycles
 SCF Done:  E(RB3LYP) =  -1284.48626382     A.U. after    8 cycles
 Optimization completed.
    -- Stationary point found.
 Normal termination of Gaussian 16 at Tue May 16 05:02:50 2023.

 ----------------------------------------------------------------------
 #N Geom=AllCheck Guess=TCheck SCRF=Check GenChk RB3LYP/6-31G(2df,p) Fr
 eq
 ----------------------------------------------------------------------

 Structure from the checkpoint file:  "ONN1CSCdCdCqCdSrNdN1.chk"
 -------------------
 Title Card Required
 -------------------
 Charge =  0 Multiplicity = 1

                         Standard orientation:
 ---------------------------------------------------------------------
 Center     Atomic      Atomic             Coordinates (Angstroms)
 Number     Number       Type             X           Y           Z
 ---------------------------------------------------------------------
      1          8           0        4.117270    1.207164   -0.348240
      2          7           0        2.993776    1.241873    0.523436
      3          7           0        1.918465    0.591877   -0.159048
      4          6           0        2.055663   -0.896698   -0.063610
      5         16           0        0.654909   -1.976951   -0.596255
      6          6           0       -0.517876   -1.798123    0.786994
      7          6           0       -1.339153   -0.779339    0.743909
      8          6           0       -1.489736    0.436849    0.178470
      9          6           0       -2.667831    1.013339   -0.412294
     10         16           0       -4.201267    0.560352   -0.096851
     11          7           0       -0.221872    0.928443   -0.209062
     12          7           0        0.717336    0.873807    0.591203
     13          1           0        4.073128    2.064157   -0.789376
     14          1           0        3.312447    0.652127    1.299358
     15          1           0        2.315332   -1.175343    0.966107
     16          1           0        2.874279   -1.174922   -0.730125
     17          1           0       -0.417961   -2.488253    1.616680
     18          1           0       -2.453991    1.822345   -1.113548
 ---------------------------------------------------------------------

 SCF Done:  E(RB3LYP) =  -1284.48626382     A.U. after    1 cycles

 The electronic state is 1-A.
 Alpha  occ. eigenvalues --  -88.90817 -88.86899 -19.18646 -14.42931 -14.42286
 Alpha  occ. eigenvalues --  -14.41871 -14.40822 -10.26867 -10.26769 -10.26462
 Alpha  occ. eigenvalues --  -10.24575 -10.23760  -7.96925  -7.93401  -5.93421
 Alpha  occ. eigenvalues --   -5.93089  -5.92442  -5.89757  -5.89670  -5.88876
 Alpha  occ. eigenvalues --   -1.11493  -1.08332  -0.96216  -0.86989  -0.82917
 Alpha  occ. eigenvalues --   -0.79512  -0.75638  -0.73717  -0.65709  -0.63123
 Alpha  occ. eigenvalues --   -0.61089  -0.55996  -0.54410  -0.51979  -0.50010
 Alpha  occ. eigenvalues --   -0.49395  -0.47093  -0.46550  -0.45568  -0.42408
 Alpha  occ. eigenvalues --   -0.41171  -0.39056  -0.37558  -0.36048  -0.33438
 Alpha  occ. eigenvalues --   -0.30640  -0.29792  -0.27533  -0.26808  -0.25555
 Alpha  occ. eigenvalues --   -0.23927  -0.22795
 Alpha virt. eigenvalues --   -0.12143  -0.08853  -0.05693   0.01075   0.05279
 Alpha virt. eigenvalues --    0.06435   0.06652   0.07319   0.09256   0.11022
 Alpha virt. eigenvalues --    0.11924   0.13162   0.13421   0.14424   0.15726

 Mulliken charges:
               1
     1  O   -0.395365
     2  N   -0.152486
     3  N   -0.039129
     4  C   -0.158471
     5  S   -0.085040
     6  C   -0.226144
     7  C    0.145205
     8  C    0.216742
     9  C   -0.062049
    10  S   -0.230078
    11  N   -0.082354
    12  N   -0.094271
    13  H    0.311284
    14  H    0.242855
    15  H    0.132234
    16  H    0.173080
    17  H    0.154539
    18  H    0.149448
 Sum of Mulliken charges =  -0.00000

 Dipole moment (field-independent basis, Debye):
    X=              3.2859    Y=             -0.1684    Z=              0.7795  Tot=              3.3813
 Quadrupole moment (field-independent basis, Debye-Ang):
   XX=            -89.3962   YY=            -78.8852   ZZ=            -81.3349
   XY=              1.2587   XZ=              0.4802   YZ=             -5.2515

  Exact polarizability: 223.125 -10.736 121.061  -0.284  -9.205  82.861
 Approx polarizability: 362.100 -10.284 228.512  -6.843 -26.056 154.258

                      1                      2                      3
                      A                      A                      A
 Frequencies --     53.3125                65.2677                93.0604
 Red. masses --      5.9286                13.4292                 5.0832
 Frc consts  --      0.0099                 0.0337                 0.0259
 IR Inten    --      0.2771                 0.2457                 0.4832

                      4                      5                      6
                      A                      A                      A
 Frequencies --    126.1528               150.2564               217.6402
 Red. masses --      5.0562                 4.5654                 4.3940
 Frc consts  --      0.0474                 0.0607                 0.1226
 IR Inten    --      3.9740                 3.7931                 2.8101

                      7                      8                      9
                      A                      A                      A
 Frequencies --    229.2907               243.4562               269.9671
 Red. masses --      4.5391                 6.0509                 5.5430
 Frc consts  --      0.1406                 0.2113                 0.2380
 IR Inten    --      2.5828                 1.0278                 2.6124

                     10                     11                     12
                      A                      A                      A
 Frequencies --    275.1493               329.5567               373.4056
 Red. masses --      4.9501                 1.5343                 6.3200
 Frc consts  --      0.2208                 0.0982                 0.5192
 IR Inten    --      3.2092                70.5738                 9.3788

                     13                     14                     15
                      A                      A                      A
 Frequencies --    400.4895               410.8226               517.0470
 Red. masses --      2.5759                 7.8023                 7.6691
 Frc consts  --      0.2434                 0.7759                 1.2080
 IR Inten    --     42.1186                19.2413                 6.5670

                     16                     17                     18
                      A                      A                      A
 Frequencies --    543.4923               571.3952               587.4502
 Red. masses --      7.3418                 5.8798                10.2130
 Frc consts  --      1.2777                 1.1311                 2.0766
 IR Inten    --      3.9657                25.2219                25.0327

                     19                     20                     21
                      A                      A                      A
 Frequencies --    677.8049               679.5032               737.8599
 Red. masses --      8.0767                 6.2826                 5.5073
 Frc consts  --      2.1862                 1.7091                 1.7666
 IR Inten    --     23.5143                12.9667                 3.7251

                     22                     23                     24
                      A                      A                      A
 Frequencies --    789.9478               839.9514               890.7316
 Red. masses --      1.4627                 4.9319                 2.3062
 Frc consts  --      0.5378                 2.0501                 1.0781
 IR Inten    --     22.0036                24.4340                26.1824

                     25                     26                     27
                      A                      A                      A
 Frequencies --    920.5031               927.0105               930.9103
 Red. masses --      2.1169                 2.3950                 4.8627
 Frc consts  --      1.0568                 1.2126                 2.4828
 IR Inten    --     13.3290                 8.4526                 6.7656

                     28                     29                     30
                      A                      A                      A
 Frequencies --    981.7822              1005.4248              1053.3551
 Red. masses --     10.7964                 9.3214                 7.1815
 Frc consts  --      6.1314                 5.5518                 4.6948
 IR Inten    --     14.3056                72.1607                27.6061

                     31                     32                     33
                      A                      A                      A
 Frequencies --   1090.8917              1149.5317              1200.1113
 Red. masses --      2.2909                 1.3866                 1.1927
 Frc consts  --      1.6063                 1.0796                 1.0121
 IR Inten    --     38.6923                77.5073                10.9051

                     34                     35                     36
                      A                      A                      A
 Frequencies --   1223.6187              1304.6796              1352.6515
 Red. masses --      1.1282                 1.1676                 2.2444
 Frc consts  --      0.9952                 1.1710                 2.4195
 IR Inten    --     11.8366                10.4384                 3.9259

                     37                     38                     39
                      A                      A                      A
 Frequencies --   1385.2130              1400.9545              1449.5260
 Red. masses --      3.7352                 1.2178                 1.0948
 Frc consts  --      4.2228                 1.4082                 1.3553
 IR Inten    --    162.2652                36.4086                10.0244

                     40                     41                     42
                      A                      A                      A
 Frequencies --   1532.3967              1578.6058              1822.3104
 Red. masses --      1.0995                11.2483                10.4955
 Frc consts  --      1.5212                16.5153                20.5353
 IR Inten    --     15.7462                48.4070                29.4934

                     43                     44                     45
                      A                      A                      A
 Frequencies --   3010.8001              3107.4768              3126.0527
 Red. masses --      1.0657                 1.0864                 1.0971
 Frc consts  --      5.6919                 6.1812                 6.3166
 IR Inten    --     24.3777                 5.4642                 3.7086

                     46                     47                     48
                      A                      A                      A
 Frequencies --   3188.4341              3369.0225              3788.3971
 Red. masses --      1.0923                 1.0741                 1.0680
 Frc consts  --      6.5425                 7.1828                 9.0308
 IR Inten    --      1.1736                 6.0419                61.4465

 - Thermochemistry -
 -------------------
 Temperature   298.150 Kelvin.  Pressure   1.00000 Atm.
 Atom     1 has atomic number  8 and mass  15.99491

 Molecular mass:   201.99830 amu.
 Principal axes and moments of inertia in atomic units:
                           1         2         3
     Eigenvalues --  1223.203104700.399455585.61681
           X            1.00000   0.00104   0.00268
           Y           -0.00096   0.99960  -0.02837
           Z           -0.00271   0.02836   0.99959
 This molecule is an asymmetric top.
 Rotational symmetry number  1.
 Warning -- assumption of classical behavior for rotation
           may cause significant error
 Rotational temperatures (Kelvin)      0.07081     0.01843     0.01551
 Rotational constants (GHZ):           1.47542     0.38395     0.32311
 Zero-point vibrational energy     310865.6 (Joules/Mol)
                                   74.29866 (Kcal/Mol)
 Warning -- explicit consideration of  18 degrees of freedom as
           vibrations may cause significant error
 Vibrational temperatures:     76.70    93.91   133.89   181.51   216.19
          (Kelvin)            313.14   329.90   350.28   388.42   395.88
                              474.16   537.25   576.22   591.08   743.92
                              781.96   822.11   845.21   975.21   977.65
                             1061.62  1136.56  1208.50  1281.56  1324.40
                             1333.76  1339.37  1412.57  1446.58  1515.54
                             1569.55  1653.92  1726.69  1760.51  1877.14
                             1946.16  1993.01  2015.66  2085.54  2204.78
                             2271.26  2621.90  4331.87  4470.97  4497.69
                             4587.45  4847.27  5450.66

 Zero-point correction=                           0.118402 (Hartree/Particle)
 Thermal correction to Energy=                    0.130405
 Thermal correction to Enthalpy=                  0.131349
 Thermal correction to Gibbs Free Energy=         0.079325
 Sum of electronic and zero-point Energies=          -1284.367861
 Sum of electronic and thermal Energies=             -1284.355859
 Sum of electronic and thermal Enthalpies=           -1284.354915
 Sum of electronic and thermal Free Energies=        -1284.406939

                     E (Thermal)             CV                S
                      KCal/Mol        Cal/Mol-Kelvin    Cal/Mol-Kelvin
 Total                   81.830             43.502            109.493
 Electronic               0.000              0.000              0.000
 Translational            0.889              2.981             41.814
 Rotational               0.889              2.981             31.841
 Vibrational             80.053             37.540             35.839
 Vibration     1          0.596              1.976              4.691
 Vibration     2          0.597              1.971              4.291
 Vibration     3          0.602              1.954              3.595
 Vibration     4          0.611              1.927              3.004
 Vibration     5          0.618              1.902              2.669
 Vibration     6          0.646              1.814              1.979
 Vibration     7          0.652              1.796              1.884
 Vibration     8          0.659              1.774              1.777
 Vibration     9          0.674              1.728              1.596
 Vibration    10          0.677              1.719              1.564
 Vibration    11          0.712              1.616              1.262
 Vibration    12          0.745              1.527              1.066
 Vibration    13          0.766              1.469              0.961
 Vibration    14          0.775              1.447              0.924
 Vibration    15          0.872              1.212              0.617
 Vibration    16          0.899              1.154              0.558
 Vibration    17          0.928              1.093              0.502
 Vibration    18          0.945              1.059              0.472

                           ! Non-Optimized Parameters !
 Normal termination of Gaussian 16 at Tue May 16 05:44:57 2023.
