 Gaussian 16, Revision A.03,
 Gaussian 16:  ES64L-G16RevA.03 25-Dec-2016

 -----------------------------
 # opt freq b3lyp/6-31g(2df,p)
 -----------------------------

 -------------------
 Title Card Required
 -------------------
 Symbolic Z-matrix:
 Charge =  0 Multiplicity = 1

 SCF Done:  E(RB3LYP) =  -571.205510800     A.U. after   31 cycles
 SCF Done:  E(RB3LYP) =  -571.288047952     A.U. after   19 cycles
 SCF Done:  E(RB3LYP) =  -571.369199040     A.U. after   17 cycles
 SCF Done:  E(RB3LYP) =  -571.414101602     A.U. after   17 cycles
 SCF Done:  E(RB3LYP) =  -571.441432337     A.U. after   16 cycles
 SCF Done:  E(RB3LYP) =  -571.455072664     A.U. after   16 cycles
 SCF Done:  E(RB3LYP) =  -571.466275222     A.U. after   16 cycles
 SCF Done:  E(RB3LYP) =  -571.475021054     A.U. after   16 cycles
 SCF Done:  E(RB3LYP) =  -571.490225891     A.U. after   16 cycles
 SCF Done:  E(RB3LYP) =  -571.503384704     A.U. after   16 cycles
 SCF Done:  E(RB3LYP) =  -571.632793214     A.U. after   10 cycles
 SCF Done:  E(RB3LYP) =  -571.632689323     A.U. after   12 cycles
 SCF Done:  E(RB3LYP) =  -571.632827113     A.U. after   12 cycles
 SCF Done:  E(RB3LYP) =  -571.632834306     A.U. after   10 cycles
 SCF Done:  E(RB3LYP) =  -571.632837882     A.U. after   10 cycles
 SCF Done:  E(RB3LYP) =  -571.632838443     A.U. after    8 cycles
 SCF Done:  E(RB3LYP) =  -571.632838558     A.U. after    7 cycles
 SCF Done:  E(RB3LYP) =  -571.632838536     A.U. after    8 cycles
 SCF Done:  E(RB3LYP) =  -571.632838577     A.U. after    7 cycles
 Optimization completed.
    -- Stationary point found.
 Normal termination of Gaussian 16 at Fri May 19 17:18:17 2023.

 ----------------------------------------------------------------------
 #N Geom=AllCheck Guess=TCheck SCRF=Check GenChk RB3LYP/6-31G(2df,p) Fr
 eq
 ----------------------------------------------------------------------

 Structure from the checkpoint file:  "ONN1CdCCdC2CdCCdCC1dC2.chk"
 -------------------
 Title Card Required
 -------------------
 Charge =  0 Multiplicity = 1

                         Standard orientation:
 ---------------------------------------------------------------------
 Center     Atomic      Atomic             Coordinates (Angstroms)
 Number     Number       Type             X           Y           Z
 ---------------------------------------------------------------------
      1          8           0        2.619393   -1.270696    1.142309
      2          7           0        2.472995   -0.969348   -0.279717
      3          7           0        1.353144   -0.158636   -0.476428
      4          6           0        1.605420    1.207892   -0.545889
      5          6           0        0.738916    2.255388   -0.506381
      6          6           0       -0.688260    2.231588   -0.210374
      7          6           0       -1.187816    1.251859    0.544965
      8          6           0       -2.091740    0.184438    1.011603
      9          6           0       -2.793855   -0.782047    0.118461
     10          6           0       -2.130456   -1.512537   -0.797380
     11          6           0       -0.703789   -1.335967   -1.028699
     12          6           0        0.042108   -0.621530   -0.167273
     13          6           0       -0.545236    0.038945    1.029360
     14          1           0        3.386081   -0.738749    1.384791
     15          1           0        2.218191   -1.885459   -0.642252
     16          1           0        2.658084    1.392872   -0.732849
     17          1           0        1.180160    3.217696   -0.749663
     18          1           0       -1.308985    3.027664   -0.615847
     19          1           0       -2.563197    0.348476    1.979391
     20          1           0       -3.857428   -0.933059    0.276406
     21          1           0       -2.671540   -2.211916   -1.427207
     22          1           0       -0.273363   -1.679373   -1.964143
     23          1           0        0.022131    0.015128    1.955567
 ---------------------------------------------------------------------

 SCF Done:  E(RB3LYP) =  -571.632838577     A.U. after    1 cycles

 The electronic state is 1-A.
 Alpha  occ. eigenvalues --  -19.16511 -14.41082 -14.38573 -10.22050 -10.21827
 Alpha  occ. eigenvalues --  -10.20960 -10.18883 -10.18592 -10.18542 -10.18409
 Alpha  occ. eigenvalues --  -10.18197 -10.18125 -10.17319  -1.07566  -0.96858
 Alpha  occ. eigenvalues --   -0.88946  -0.80875  -0.79818  -0.75953  -0.73819
 Alpha  occ. eigenvalues --   -0.67147  -0.63723  -0.61850  -0.56125  -0.55437
 Alpha  occ. eigenvalues --   -0.52348  -0.50823  -0.50267  -0.48078  -0.47090
 Alpha  occ. eigenvalues --   -0.45069  -0.44207  -0.42841  -0.40436  -0.39103
 Alpha  occ. eigenvalues --   -0.37275  -0.36038  -0.34846  -0.34252  -0.31182
 Alpha  occ. eigenvalues --   -0.30676  -0.27895  -0.26789  -0.25988  -0.21227
 Alpha  occ. eigenvalues --   -0.18655
 Alpha virt. eigenvalues --   -0.03310  -0.00615   0.06916   0.07217   0.07399
 Alpha virt. eigenvalues --    0.09645   0.10699   0.11183   0.13251   0.14578
 Alpha virt. eigenvalues --    0.15036   0.16503   0.16752   0.17753   0.18856

 Mulliken charges:
               1
     1  O   -0.407020
     2  N   -0.232873
     3  N   -0.081112
     4  C    0.024669
     5  C   -0.137539
     6  C   -0.280573
     7  C    0.299061
     8  C   -0.228752
     9  C   -0.084218
    10  C   -0.077449
    11  C   -0.202085
    12  C    0.297129
    13  C   -0.227979
    14  H    0.300991
    15  H    0.259794
    16  H    0.111755
    17  H    0.088946
    18  H    0.093764
    19  H    0.100897
    20  H    0.094899
    21  H    0.091039
    22  H    0.089793
    23  H    0.106865
 Sum of Mulliken charges =   0.00000

 Dipole moment (field-independent basis, Debye):
    X=              0.5762    Y=             -0.1698    Z=             -0.0283  Tot=              0.6013
 Quadrupole moment (field-independent basis, Debye-Ang):
   XX=            -67.1290   YY=            -73.4406   ZZ=            -73.2112
   XY=              1.8078   XZ=              0.4458   YZ=              2.9224

  Exact polarizability: 151.184   7.520 123.524  -5.848   3.787  89.517
 Approx polarizability: 247.913   1.996 205.552 -19.212   8.728 158.177

                      1                      2                      3
                      A                      A                      A
 Frequencies --     48.1218               100.1954               134.1152
 Red. masses --      5.6411                 5.1886                 4.4265
 Frc consts  --      0.0077                 0.0307                 0.0469
 IR Inten    --      0.7656                 1.4294                 0.5938

                      4                      5                      6
                      A                      A                      A
 Frequencies --    212.2251               260.7436               284.1340
 Red. masses --      3.3700                 3.0925                 3.4253
 Frc consts  --      0.0894                 0.1239                 0.1629
 IR Inten    --      0.3846                 9.5224                 3.3690

                      7                      8                      9
                      A                      A                      A
 Frequencies --    312.3641               343.0880               383.5012
 Red. masses --      2.3876                 2.0391                 2.7697
 Frc consts  --      0.1373                 0.1414                 0.2400
 IR Inten    --     16.6112                30.4355                27.9619

                     10                     11                     12
                      A                      A                      A
 Frequencies --    419.7002               463.7392               481.0927
 Red. masses --      4.8395                 4.2620                 4.4399
 Frc consts  --      0.5023                 0.5400                 0.6055
 IR Inten    --      2.8906                15.4652                47.5936

                     13                     14                     15
                      A                      A                      A
 Frequencies --    509.6223               548.8764               596.5604
 Red. masses --      5.4457                 4.7985                 3.5516
 Frc consts  --      0.8333                 0.8517                 0.7447
 IR Inten    --      5.4285                 2.4414                 3.8726

                     16                     17                     18
                      A                      A                      A
 Frequencies --    617.8602               673.9650               726.5420
 Red. masses --      3.9660                 3.2714                 3.4989
 Frc consts  --      0.8920                 0.8755                 1.0882
 IR Inten    --     18.9313                 5.1425                11.0739

                     19                     20                     21
                      A                      A                      A
 Frequencies --    745.5326               762.0836               790.0789
 Red. masses --      1.9824                 1.4664                 3.1010
 Frc consts  --      0.6492                 0.5018                 1.1405
 IR Inten    --     19.8148                34.5888               116.1308

                     22                     23                     24
                      A                      A                      A
 Frequencies --    809.8126               825.3815               883.0103
 Red. masses --      3.9285                 5.0711                 2.0900
 Frc consts  --      1.5179                 2.0355                 0.9601
 IR Inten    --     39.1029                26.4241                18.8244

                     25                     26                     27
                      A                      A                      A
 Frequencies --    887.2336               903.5669               943.3806
 Red. masses --      1.9805                 2.4900                 1.8063
 Frc consts  --      0.9185                 1.1978                 0.9471
 IR Inten    --      6.7871                 3.0873                 5.0684

                     28                     29                     30
                      A                      A                      A
 Frequencies --    955.2250               965.1173               973.9374
 Red. masses --      1.5568                 1.6973                 1.7896
 Frc consts  --      0.8370                 0.9315                 1.0002
 IR Inten    --      0.5325                 7.7040                 9.8060

                     31                     32                     33
                      A                      A                      A
 Frequencies --   1006.7938              1008.5593              1031.0694
 Red. masses --      1.7508                 2.4293                 2.8796
 Frc consts  --      1.0456                 1.4559                 1.8037
 IR Inten    --      4.6852                 3.8408                28.2963

                     34                     35                     36
                      A                      A                      A
 Frequencies --   1044.9667              1049.6967              1078.9006
 Red. masses --      2.0879                 2.0725                 1.5554
 Frc consts  --      1.3433                 1.3455                 1.0668
 IR Inten    --      0.4296                23.8641                 0.1061

                     37                     38                     39
                      A                      A                      A
 Frequencies --   1113.8707              1188.1223              1210.8823
 Red. masses --      1.6141                 1.5349                 1.4470
 Frc consts  --      1.1799                 1.2766                 1.2500
 IR Inten    --      6.5562                31.7796                29.2261

                     40                     41                     42
                      A                      A                      A
 Frequencies --   1219.5861              1267.0446              1319.4477
 Red. masses --      1.4656                 1.3845                 1.3312
 Frc consts  --      1.2844                 1.3096                 1.3654
 IR Inten    --     34.9729                 8.8517                 2.7956

                     43                     44                     45
                      A                      A                      A
 Frequencies --   1330.2658              1355.6501              1382.9542
 Red. masses --      1.5793                 1.8295                 1.7768
 Frc consts  --      1.6467                 1.9809                 2.0022
 IR Inten    --     18.2194                 4.9052                 1.3353

                     46                     47                     48
                      A                      A                      A
 Frequencies --   1397.1908              1421.2656              1443.5982
 Red. masses --      1.5030                 1.6885                 1.7014
 Frc consts  --      1.7287                 2.0095                 2.0891
 IR Inten    --     53.8738                 3.7570                14.1168

                     49                     50                     51
                      A                      A                      A
 Frequencies --   1526.3245              1614.9729              1626.4274
 Red. masses --      1.1601                 6.3437                 7.3582
 Frc consts  --      1.5923                 9.7483                11.4681
 IR Inten    --     16.2628                80.8781                52.0688

                     52                     53                     54
                      A                      A                      A
 Frequencies --   1696.3520              1771.3754              3110.0848
 Red. masses --      6.3288                 9.0895                 1.0863
 Frc consts  --     10.7300                16.8040                 6.1906
 IR Inten    --     21.6133                12.8569                22.9316

                     55                     56                     57
                      A                      A                      A
 Frequencies --   3141.1301              3143.1942              3161.1623
 Red. masses --      1.0872                 1.0887                 1.0838
 Frc consts  --      6.3204                 6.3371                 6.3810
 IR Inten    --     25.0534                 7.8530                 1.8723

                     58                     59                     60
                      A                      A                      A
 Frequencies --   3162.3387              3173.4777              3186.4446
 Red. masses --      1.0864                 1.0902                 1.0970
 Frc consts  --      6.4012                 6.4690                 6.5622
 IR Inten    --     18.2693                21.6832                28.6751

                     61                     62                     63
                      A                      A                      A
 Frequencies --   3192.0899              3496.9632              3799.2951
 Red. masses --      1.0912                 1.0754                 1.0681
 Frc consts  --      6.5511                 7.7483                 9.0835
 IR Inten    --     11.2537                 3.9894                49.3661

 - Thermochemistry -
 -------------------
 Temperature   298.150 Kelvin.  Pressure   1.00000 Atm.
 Atom     1 has atomic number  8 and mass  15.99491

 Molecular mass:   174.07931 amu.
 Principal axes and moments of inertia in atomic units:
                           1         2         3
     Eigenvalues --  1398.068122308.443222996.85883
           X            0.99973   0.02304  -0.00096
           Y           -0.02303   0.99969   0.00921
           Z            0.00117  -0.00919   0.99996
 This molecule is an asymmetric top.
 Rotational symmetry number  1.
 Warning -- assumption of classical behavior for rotation
           may cause significant error
 Rotational temperatures (Kelvin)      0.06195     0.03752     0.02890
 Rotational constants (GHZ):           1.29088     0.78180     0.60221
 Zero-point vibrational energy     479895.8 (Joules/Mol)
                                  114.69784 (Kcal/Mol)
 Warning -- explicit consideration of  16 degrees of freedom as
           vibrations may cause significant error
 Vibrational temperatures:     69.24   144.16   192.96   305.34   375.15
          (Kelvin)            408.81   449.42   493.63   551.77   603.86
                              667.22   692.19   733.23   789.71   858.32
                              888.96   969.69  1045.33  1072.66  1096.47
                             1136.75  1165.14  1187.54  1270.45  1276.53
                             1300.03  1357.31  1374.36  1388.59  1401.28
                             1448.55  1451.09  1483.48  1503.47  1510.28
                             1552.30  1602.61  1709.44  1742.19  1754.71
                             1822.99  1898.39  1913.96  1950.48  1989.76
                             2010.25  2044.88  2077.02  2196.04  2323.59
                             2340.07  2440.67  2548.61  4474.72  4519.39
                             4522.36  4548.21  4549.90  4565.93  4584.58
                             4592.71  5031.35  5466.34

 Zero-point correction=                           0.182783 (Hartree/Particle)
 Thermal correction to Energy=                    0.193244
 Thermal correction to Enthalpy=                  0.194188
 Thermal correction to Gibbs Free Energy=         0.146731
 Sum of electronic and zero-point Energies=           -571.450056
 Sum of electronic and thermal Energies=              -571.439594
 Sum of electronic and thermal Enthalpies=            -571.438650
 Sum of electronic and thermal Free Energies=         -571.486108

                     E (Thermal)             CV                S
                      KCal/Mol        Cal/Mol-Kelvin    Cal/Mol-Kelvin
 Total                  121.262             42.650             99.883
 Electronic               0.000              0.000              0.000
 Translational            0.889              2.981             41.370
 Rotational               0.889              2.981             30.648
 Vibrational            119.485             36.688             27.864
 Vibration     1          0.595              1.978              4.893
 Vibration     2          0.604              1.949              3.451
 Vibration     3          0.613              1.919              2.886
 Vibration     4          0.643              1.822              2.024
 Vibration     5          0.669              1.745              1.657
 Vibration     6          0.683              1.703              1.509
 Vibration     7          0.701              1.650              1.350
 Vibration     8          0.722              1.589              1.198
 Vibration     9          0.753              1.505              1.025
 Vibration    10          0.782              1.427              0.893
 Vibration    11          0.821              1.330              0.755
 Vibration    12          0.837              1.292              0.707
 Vibration    13          0.865              1.229              0.634
 Vibration    14          0.904              1.142              0.547
 Vibration    15          0.954              1.039              0.456
 Vibration    16          0.978              0.994              0.420

 Optimization completed.
    -- Stationary point found.
 Normal termination of Gaussian 16 at Fri May 19 18:35:19 2023.
