 Gaussian 16, Revision A.03,
 Gaussian 16:  ES64L-G16RevA.03 25-Dec-2016

 -----------------------------
 # opt freq b3lyp/6-31g(2df,p)
 -----------------------------

 -------------------
 Title Card Required
 -------------------
 Symbolic Z-matrix:
 Charge =  0 Multiplicity = 1

 SCF Done:  E(RB3LYP) =  -924.548016307     A.U. after   25 cycles
 SCF Done:  E(RB3LYP) =  -925.723830050     A.U. after   22 cycles
 SCF Done:  E(RB3LYP) =  -926.530964581     A.U. after   21 cycles
 SCF Done:  E(RB3LYP) =  -926.681995761     A.U. after   20 cycles
 SCF Done:  E(RB3LYP) =  -926.754960648     A.U. after   17 cycles
 SCF Done:  E(RB3LYP) =  -926.824690976     A.U. after   17 cycles
 SCF Done:  E(RB3LYP) =  -926.858611163     A.U. after   15 cycles
 SCF Done:  E(RB3LYP) =  -926.951288568     A.U. after   17 cycles
 SCF Done:  E(RB3LYP) =  -926.986474500     A.U. after   15 cycles
 SCF Done:  E(RB3LYP) =  -927.000608321     A.U. after   16 cycles
 SCF Done:  E(RB3LYP) =  -927.001966021     A.U. after   15 cycles
 SCF Done:  E(RB3LYP) =  -927.005793643     A.U. after   14 cycles
 SCF Done:  E(RB3LYP) =  -927.006148920     A.U. after   14 cycles
 SCF Done:  E(RB3LYP) =  -927.006206113     A.U. after   12 cycles
 SCF Done:  E(RB3LYP) =  -927.006214594     A.U. after   11 cycles
 SCF Done:  E(RB3LYP) =  -927.006217153     A.U. after   10 cycles
 Optimization completed.
    -- Stationary point found.
 Normal termination of Gaussian 16 at Tue May 16 02:45:55 2023.

 ----------------------------------------------------------------------
 #N Geom=AllCheck Guess=TCheck SCRF=Check GenChk RB3LYP/6-31G(2df,p) Fr
 eq
 ----------------------------------------------------------------------

 Structure from the checkpoint file:  "OOc1nc2cqncc1dSrdCCd2.chk"
 -------------------
 Title Card Required
 -------------------
 Charge =  0 Multiplicity = 1

                         Standard orientation:
 ---------------------------------------------------------------------
 Center     Atomic      Atomic             Coordinates (Angstroms)
 Number     Number       Type             X           Y           Z
 ---------------------------------------------------------------------
      1          8           0        4.108143   -0.305168   -0.000068
      2          8           0        2.701989   -0.780368   -0.000031
      3          6           0        1.917910    0.246350   -0.000014
      4          7           0        0.607270   -0.177610    0.000067
      5          6           0       -1.691158    0.306274   -0.000017
      6          6           0       -1.923207   -1.206355   -0.000005
      7          7           0       -0.926537   -2.108763    0.000045
      8          6           0        0.251410   -1.540952    0.000086
      9          6           0       -0.435124    0.895142    0.000020
     10         16           0       -0.045964    2.491050    0.000027
     11          6           0       -3.279149   -1.045949   -0.000055
     12          6           0       -3.056633    0.443296   -0.000065
     13          1           0        4.544407   -1.172829   -0.000067
     14          1           0        1.113943   -2.196383    0.000105
     15          1           0       -4.148647   -1.682613   -0.000076
     16          1           0       -3.724757    1.297094   -0.000098
 ---------------------------------------------------------------------

 SCF Done:  E(RB3LYP) =  -927.006217153     A.U. after    1 cycles

 The electronic state is 1-A.
 Alpha  occ. eigenvalues --  -88.85145 -19.26497 -19.21365 -14.42064 -14.36461
 Alpha  occ. eigenvalues --  -10.30678 -10.28452 -10.26165 -10.26145 -10.26033
 Alpha  occ. eigenvalues --  -10.21628 -10.21076  -7.91607  -5.87947  -5.87842
 Alpha  occ. eigenvalues --   -5.87141  -1.16723  -1.02812  -0.98152  -0.93354
 Alpha  occ. eigenvalues --   -0.90282  -0.79492  -0.72275  -0.69185  -0.65903
 Alpha  occ. eigenvalues --   -0.61752  -0.59133  -0.57298  -0.55361  -0.51843
 Alpha  occ. eigenvalues --   -0.48907  -0.48551  -0.45088  -0.43824  -0.42507
 Alpha  occ. eigenvalues --   -0.41169  -0.40260  -0.39034  -0.38628  -0.36475
 Alpha  occ. eigenvalues --   -0.31109  -0.29263  -0.26869  -0.25017  -0.21163
 Alpha  occ. eigenvalues --   -0.20129
 Alpha virt. eigenvalues --   -0.13600  -0.06412  -0.02915  -0.00966   0.02646
 Alpha virt. eigenvalues --    0.07094   0.08956   0.09801   0.12257   0.12677
 Alpha virt. eigenvalues --    0.13475   0.14520   0.16882   0.17542   0.20692

 Mulliken charges:
               1
     1  O   -0.266565
     2  O   -0.094286
     3  C    0.046870
     4  N   -0.190818
     5  C    0.288903
     6  C    0.389581
     7  N   -0.368350
     8  C    0.113510
     9  C    0.151081
    10  S   -0.299750
    11  C   -0.302602
    12  C   -0.232095
    13  H    0.307948
    14  H    0.163413
    15  H    0.135467
    16  H    0.157695
 Sum of Mulliken charges =  -0.00000

 Dipole moment (field-independent basis, Debye):
    X=             -1.4845    Y=             -3.6548    Z=             -0.0000  Tot=              3.9448
 Quadrupole moment (field-independent basis, Debye-Ang):
   XX=            -56.3856   YY=            -80.0891   ZZ=            -73.9049
   XY=            -11.8985   XZ=              0.0004   YZ=             -0.0000

  Exact polarizability: 211.530  14.843 150.884   0.002   0.001  50.308
 Approx polarizability: 425.255  91.416 344.140   0.006   0.001  88.858

                      1                      2                      3
                      A                      A                      A
 Frequencies --     40.2130                99.2864               137.9973
 Red. masses --      5.6557                 1.4161                 8.5415
 Frc consts  --      0.0054                 0.0082                 0.0958
 IR Inten    --      0.8469                97.6602                 0.6077

                      4                      5                      6
                      A                      A                      A
 Frequencies --    145.8263               170.7190               207.6171
 Red. masses --      8.7014                 3.0735                 3.2305
 Frc consts  --      0.1090                 0.0528                 0.0820
 IR Inten    --      1.5567                 0.1649                18.4018

                      7                      8                      9
                      A                      A                      A
 Frequencies --    211.8279               231.6379               335.9868
 Red. masses --      5.9148                 8.5801                 8.8265
 Frc consts  --      0.1564                 0.2712                 0.5871
 IR Inten    --      3.8937                 4.2720                10.5176

                     10                     11                     12
                      A                      A                      A
 Frequencies --    363.3118               365.2526               421.6591
 Red. masses --      7.5696                 9.8681                 3.1717
 Frc consts  --      0.5887                 0.7757                 0.3323
 IR Inten    --      3.6842                13.5106                 0.1329

                     13                     14                     15
                      A                      A                      A
 Frequencies --    465.9037               541.3397               604.3085
 Red. masses --     10.6201                 6.6269                 5.4658
 Frc consts  --      1.3582                 1.1442                 1.1760
 IR Inten    --      2.3206                12.9902                 0.7503

                     16                     17                     18
                      A                      A                      A
 Frequencies --    607.4852               662.5606               668.4954
 Red. masses --      8.2514                 1.5198                 6.3196
 Frc consts  --      1.7941                 0.3931                 1.6639
 IR Inten    --    134.2497                10.9519               196.2037

                     19                     20                     21
                      A                      A                      A
 Frequencies --    682.4790               778.3073               785.9025
 Red. masses --      6.3532                 4.8042                 9.5583
 Frc consts  --      1.7435                 1.7146                 3.4783
 IR Inten    --     19.0683                33.4085                13.6266

                     22                     23                     24
                      A                      A                      A
 Frequencies --    852.8249               915.1501               939.0373
 Red. masses --      3.9647                 1.6718                 6.6084
 Frc consts  --      1.6990                 0.8249                 3.4333
 IR Inten    --     18.9346                 5.3213                56.4228

                     25                     26                     27
                      A                      A                      A
 Frequencies --    966.7184              1014.5315              1102.7513
 Red. masses --      1.5350                 6.1550                 6.3338
 Frc consts  --      0.8452                 3.7326                 4.5380
 IR Inten    --      2.1141                50.3880                49.9134

                     28                     29                     30
                      A                      A                      A
 Frequencies --   1127.7919              1172.0853              1182.9743
 Red. masses --      2.4853                 2.2287                 3.0717
 Frc consts  --      1.8625                 1.8039                 2.5326
 IR Inten    --    111.5071               101.0376                56.7171

                     31                     32                     33
                      A                      A                      A
 Frequencies --   1261.4382              1294.7542              1373.2838
 Red. masses --      2.5280                 8.9383                 7.3726
 Frc consts  --      2.3700                 8.8283                 8.1920
 IR Inten    --     20.7545               279.9500               104.9472

                     34                     35                     36
                      A                      A                      A
 Frequencies --   1410.0113              1437.5995              1501.2334
 Red. masses --      1.2437                 1.4008                 5.7005
 Frc consts  --      1.4568                 1.7057                 7.5693
 IR Inten    --     70.2986                55.2588                87.3338

                     37                     38                     39
                      A                      A                      A
 Frequencies --   1611.0021              1669.8537              3208.5908
 Red. masses --      6.4071                 9.1104                 1.0976
 Frc consts  --      9.7972                14.9673                 6.6575
 IR Inten    --    303.8546               202.6403                10.7006

                     40                     41                     42
                      A                      A                      A
 Frequencies --   3216.8293              3269.8102              3731.0997
 Red. masses --      1.0901                 1.1016                 1.0673
 Frc consts  --      6.6464                 6.9391                 8.7545
 IR Inten    --      1.8239                 2.7708                62.6537

 - Thermochemistry -
 -------------------
 Temperature   298.150 Kelvin.  Pressure   1.00000 Atm.
 Atom     1 has atomic number  8 and mass  15.99491

 Molecular mass:   179.99935 amu.
 Principal axes and moments of inertia in atomic units:
                           1         2         3
     Eigenvalues --  1270.974922944.090494215.06541
           X            0.99993  -0.01188   0.00000
           Y            0.01188   0.99993  -0.00000
           Z           -0.00000   0.00000   1.00000
 This molecule is an asymmetric top.
 Rotational symmetry number  1.
 Warning -- assumption of classical behavior for rotation
           may cause significant error
 Rotational temperatures (Kelvin)      0.06815     0.02942     0.02055
 Rotational constants (GHZ):           1.41997     0.61300     0.42816
 Zero-point vibrational energy     255926.0 (Joules/Mol)
                                   61.16779 (Kcal/Mol)
 Warning -- explicit consideration of  16 degrees of freedom as
           vibrations may cause significant error
 Vibrational temperatures:     57.86   142.85   198.55   209.81   245.63
          (Kelvin)            298.71   304.77   333.28   483.41   522.72
                              525.52   606.67   670.33   778.87   869.47
                              874.04   953.28   961.82   981.94  1119.81
                             1130.74  1227.02  1316.70  1351.07  1390.89
                             1459.68  1586.61  1622.64  1686.37  1702.04
                             1814.93  1862.86  1975.85  2028.69  2068.39
                             2159.94  2317.87  2402.55  4616.45  4628.30
                             4704.53  5368.22

 Zero-point correction=                           0.097477 (Hartree/Particle)
 Thermal correction to Energy=                    0.108466
 Thermal correction to Enthalpy=                  0.109410
 Thermal correction to Gibbs Free Energy=         0.059896
 Sum of electronic and zero-point Energies=           -926.908740
 Sum of electronic and thermal Energies=              -926.897751
 Sum of electronic and thermal Enthalpies=            -926.896807
 Sum of electronic and thermal Free Energies=         -926.946321

                     E (Thermal)             CV                S
                      KCal/Mol        Cal/Mol-Kelvin    Cal/Mol-Kelvin
 Total                   68.064             39.741            104.212
 Electronic               0.000              0.000              0.000
 Translational            0.889              2.981             41.470
 Rotational               0.889              2.981             31.134
 Vibrational             66.286             33.779             31.608
 Vibration     1          0.594              1.981              5.249
 Vibration     2          0.604              1.950              3.468
 Vibration     3          0.614              1.915              2.831
 Vibration     4          0.617              1.907              2.726
 Vibration     5          0.626              1.879              2.428
 Vibration     6          0.641              1.829              2.065
 Vibration     7          0.643              1.823              2.028
 Vibration     8          0.653              1.793              1.866
 Vibration     9          0.717              1.604              1.231
 Vibration    10          0.737              1.548              1.108
 Vibration    11          0.738              1.544              1.100
 Vibration    12          0.784              1.423              0.886
 Vibration    13          0.823              1.326              0.749
 Vibration    14          0.896              1.159              0.562
 Vibration    15          0.963              1.023              0.442
 Vibration    16          0.966              1.016              0.437

                           ! Non-Optimized Parameters !
 Normal termination of Gaussian 16 at Tue May 16 03:26:37 2023.
