 Gaussian 16, Revision A.03,
 Gaussian 16:  ES64L-G16RevA.03 25-Dec-2016

 -----------------------------
 # opt freq b3lyp/6-31g(2df,p)
 -----------------------------

 -------------------
 Title Card Required
 -------------------
 Symbolic Z-matrix:
 Charge =  0 Multiplicity = 1

 SCF Done:  E(RB3LYP) =  -934.958984334     A.U. after   25 cycles
 SCF Done:  E(RB3LYP) =  -935.037467098     A.U. after   19 cycles
 SCF Done:  E(RB3LYP) =  -935.093665877     A.U. after   19 cycles
 SCF Done:  E(RB3LYP) =  -935.151125872     A.U. after   17 cycles
 SCF Done:  E(RB3LYP) =  -935.236690368     A.U. after   17 cycles
 SCF Done:  E(RB3LYP) =  -935.265110750     A.U. after   16 cycles
 SCF Done:  E(RB3LYP) =  -935.275522558     A.U. after   16 cycles
 SCF Done:  E(RB3LYP) =  -935.281123187     A.U. after   16 cycles
 SCF Done:  E(RB3LYP) =  -935.289031626     A.U. after   17 cycles
 SCF Done:  E(RB3LYP) =  -935.299822132     A.U. after   16 cycles
 SCF Done:  E(RB3LYP) =  -935.320692203     A.U. after   15 cycles
 SCF Done:  E(RB3LYP) =  -935.321163074     A.U. after   13 cycles
 SCF Done:  E(RB3LYP) =  -935.321280714     A.U. after   12 cycles
 SCF Done:  E(RB3LYP) =  -935.321323752     A.U. after   11 cycles
 SCF Done:  E(RB3LYP) =  -935.321343005     A.U. after   11 cycles
 SCF Done:  E(RB3LYP) =  -935.321351495     A.U. after    9 cycles
 SCF Done:  E(RB3LYP) =  -935.321355207     A.U. after    9 cycles
 SCF Done:  E(RB3LYP) =  -935.321356992     A.U. after    9 cycles
 SCF Done:  E(RB3LYP) =  -935.321357199     A.U. after    7 cycles
 Optimization completed.
    -- Stationary point found.
 Normal termination of Gaussian 16 at Wed May 17 04:24:11 2023.

 ----------------------------------------------------------------------
 #N Geom=AllCheck Guess=TCheck SCRF=Check GenChk RB3LYP/6-31G(2df,p) Fr
 eq
 ----------------------------------------------------------------------

 Structure from the checkpoint file:  "OSc1cc2cqc3c1dCCdC3rCdCCd2.chk"
 -------------------
 Title Card Required
 -------------------
 Charge =  0 Multiplicity = 1

                         Standard orientation:
 ---------------------------------------------------------------------
 Center     Atomic      Atomic             Coordinates (Angstroms)
 Number     Number       Type             X           Y           Z
 ---------------------------------------------------------------------
      1          8           0       -3.575223   -0.380344    0.059021
      2         16           0       -2.405103   -1.542455   -0.133396
      3          6           0       -0.854237   -0.728619    0.004282
      4          6           0        0.214662   -1.656533    0.138419
      5          6           0        1.477460   -1.122276    0.233048
      6          6           0        1.739031    0.307680    0.233015
      7          6           0        0.712667    1.217754    0.123425
      8          6           0       -0.643716    0.666186   -0.021450
      9          6           0       -1.510702    1.774929   -0.144560
     10          6           0       -0.741905    2.952227   -0.086162
     11          6           0        0.605862    2.628141    0.084933
     12          6           0        3.207185    0.104838    0.273979
     13          6           0        3.337120   -0.719078   -0.948761
     14          6           0        2.926827   -1.447315    0.271271
     15          1           0       -3.693122   -0.239355    1.008249
     16          1           0        0.018885   -2.719904    0.216801
     17          1           0       -2.580707    1.728868   -0.266155
     18          1           0       -1.140325    3.955251   -0.161402
     19          1           0        1.430555    3.324782    0.145709
     20          1           0        3.990467    0.624697    0.807258
     21          1           0        2.757162   -0.612580   -1.862868
     22          1           0        3.478980   -2.207327    0.805936
 ---------------------------------------------------------------------

 SCF Done:  E(RB3LYP) =  -935.321357199     A.U. after    2 cycles

 The electronic state is 1-A.
 Alpha  occ. eigenvalues --  -88.94145 -19.19467 -10.24359 -10.22364 -10.22287
 Alpha  occ. eigenvalues --  -10.21914 -10.21878 -10.21147 -10.19086 -10.18450
 Alpha  occ. eigenvalues --  -10.17785 -10.17732 -10.17573 -10.17056  -7.99739
 Alpha  occ. eigenvalues --   -5.96461  -5.95803  -5.95229  -1.06055  -0.94397
 Alpha  occ. eigenvalues --   -0.86996  -0.82381  -0.76401  -0.72441  -0.70415
 Alpha  occ. eigenvalues --   -0.66737  -0.64062  -0.59800  -0.58571  -0.56292
 Alpha  occ. eigenvalues --   -0.55314  -0.52608  -0.49843  -0.47672  -0.46420
 Alpha  occ. eigenvalues --   -0.44371  -0.42901  -0.42337  -0.40876  -0.38941
 Alpha  occ. eigenvalues --   -0.38344  -0.37601  -0.36412  -0.34831  -0.33950
 Alpha  occ. eigenvalues --   -0.32383  -0.31585  -0.30157  -0.26829  -0.23309
 Alpha  occ. eigenvalues --   -0.21032  -0.18573
 Alpha virt. eigenvalues --   -0.09917  -0.02622  -0.00980   0.03034   0.06203
 Alpha virt. eigenvalues --    0.08743   0.09619   0.10528   0.11582   0.12870
 Alpha virt. eigenvalues --    0.13200   0.14498   0.15241   0.15783   0.17362

 Mulliken charges:
               1
     1  O   -0.373237
     2  S    0.064967
     3  C    0.091303
     4  C   -0.491395
     5  C    0.370691
     6  C    0.276292
     7  C    0.035471
     8  C    0.157092
     9  C   -0.248264
    10  C   -0.097087
    11  C   -0.268067
    12  C   -0.209616
    13  C   -0.241079
    14  C   -0.186275
    15  H    0.321881
    16  H    0.114624
    17  H    0.111088
    18  H    0.093214
    19  H    0.096268
    20  H    0.118735
    21  H    0.144945
    22  H    0.118448
 Sum of Mulliken charges =   0.00000

 Dipole moment (field-independent basis, Debye):
    X=              0.0373    Y=             -0.5002    Z=              2.0183  Tot=              2.0796
 Quadrupole moment (field-independent basis, Debye-Ang):
   XX=            -81.5790   YY=            -82.5764   ZZ=            -86.8778
   XY=             -0.5876   XZ=             -1.6177   YZ=             -1.1025

  Exact polarizability: 259.004 -26.744 191.160 -10.914   3.844  78.514
 Approx polarizability: 694.692-167.689 425.840 -81.252  34.456 158.043

                      1                      2                      3
                      A                      A                      A
 Frequencies --     64.3949                93.3213               121.1713
 Red. masses --      6.8425                 5.1966                 4.4430
 Frc consts  --      0.0167                 0.0267                 0.0384
 IR Inten    --      3.5055                 1.3248                 7.6621

                      4                      5                      6
                      A                      A                      A
 Frequencies --    170.9875               188.1922               240.8626
 Red. masses --      3.6643                 6.4540                 4.6873
 Frc consts  --      0.0631                 0.1347                 0.1602
 IR Inten    --      2.2854                 0.7594                30.4102

                      7                      8                      9
                      A                      A                      A
 Frequencies --    249.3975               289.0462               290.0369
 Red. masses --      4.9215                 5.5037                 4.6243
 Frc consts  --      0.1804                 0.2709                 0.2292
 IR Inten    --     17.3850                10.2532                 5.1949

                     10                     11                     12
                      A                      A                      A
 Frequencies --    361.9392               392.2652               463.3623
 Red. masses --      1.3764                 5.5501                 6.4917
 Frc consts  --      0.1062                 0.5032                 0.8212
 IR Inten    --     94.2557                17.3170                 4.4489

                     13                     14                     15
                      A                      A                      A
 Frequencies --    538.9086               568.2424               584.7652
 Red. masses --      5.9053                 7.3813                 3.4584
 Frc consts  --      1.0105                 1.4043                 0.6968
 IR Inten    --      9.0065               130.2585                16.2898

                     16                     17                     18
                      A                      A                      A
 Frequencies --    622.5556               629.5673               673.1786
 Red. masses --      3.7874                 5.0226                 5.6357
 Frc consts  --      0.8649                 1.1729                 1.5047
 IR Inten    --     25.0568                 1.5150                 4.8649

                     19                     20                     21
                      A                      A                      A
 Frequencies --    737.0675               754.2229               760.8838
 Red. masses --      1.3340                 3.0595                 3.1766
 Frc consts  --      0.4270                 1.0254                 1.0836
 IR Inten    --    459.8421                25.6870                48.9354

                     22                     23                     24
                      A                      A                      A
 Frequencies --    779.3264               785.6209               797.1049
 Red. masses --      1.6595                 4.5163                 1.9861
 Frc consts  --      0.5938                 1.6423                 0.7435
 IR Inten    --     35.0533                22.8425                57.3874

                     25                     26                     27
                      A                      A                      A
 Frequencies --    804.5295               842.1748               852.4565
 Red. masses --      3.1333                 1.5027                 2.2489
 Frc consts  --      1.1949                 0.6280                 0.9629
 IR Inten    --     10.5875                40.2661                 6.0336

                     28                     29                     30
                      A                      A                      A
 Frequencies --    856.3030               878.1273               893.2793
 Red. masses --      2.0296                 4.4782                 3.8187
 Frc consts  --      0.8768                 2.0346                 1.7953
 IR Inten    --      8.3083                18.3564                 0.2743

                     31                     32                     33
                      A                      A                      A
 Frequencies --    911.6600               951.4983              1015.1522
 Red. masses --      1.3413                 1.5161                 2.3050
 Frc consts  --      0.6568                 0.8087                 1.3995
 IR Inten    --      0.6610                 6.9355                24.8624

                     34                     35                     36
                      A                      A                      A
 Frequencies --   1050.0664              1086.9238              1092.8586
 Red. masses --      1.6026                 1.2766                 1.5475
 Frc consts  --      1.0411                 0.8886                 1.0890
 IR Inten    --      6.7981                 1.9870                21.5341

                     37                     38                     39
                      A                      A                      A
 Frequencies --   1097.7082              1132.4135              1171.5076
 Red. masses --      2.1181                 1.3992                 3.0923
 Frc consts  --      1.5037                 1.0572                 2.5005
 IR Inten    --      9.6275                13.5869                 5.2835

                     40                     41                     42
                      A                      A                      A
 Frequencies --   1180.0296              1208.3009              1216.5085
 Red. masses --      1.9859                 1.0857                 2.6081
 Frc consts  --      1.6292                 0.9339                 2.2741
 IR Inten    --      6.3575                32.5142                21.7192

                     43                     44                     45
                      A                      A                      A
 Frequencies --   1242.7291              1278.3798              1334.3286
 Red. masses --      2.3630                 3.7789                 7.2615
 Frc consts  --      2.1502                 3.6386                 7.6174
 IR Inten    --      4.5525                48.6204                22.9577

                     46                     47                     48
                      A                      A                      A
 Frequencies --   1339.6908              1375.7117              1409.1819
 Red. masses --      3.2118                 2.9205                 3.0260
 Frc consts  --      3.3963                 3.2566                 3.5404
 IR Inten    --     44.8440                34.4568                28.9175

                     49                     50                     51
                      A                      A                      A
 Frequencies --   1448.5939              1510.3376              1595.5386
 Red. masses --      3.2112                 5.1227                 7.3948
 Frc consts  --      3.9702                 6.8849                11.0915
 IR Inten    --     42.8882                84.3799               189.8179

                     52                     53                     54
                      A                      A                      A
 Frequencies --   1648.8698              3153.0044              3184.3791
 Red. masses --     10.3583                 1.0915                 1.0900
 Frc consts  --     16.5925                 6.3930                 6.5123
 IR Inten    --    245.6983                 9.4102                 1.5675

                     55                     56                     57
                      A                      A                      A
 Frequencies --   3212.4975              3214.7722              3219.0393
 Red. masses --      1.0922                 1.0879                 1.0974
 Frc consts  --      6.6409                 6.6241                 6.7000
 IR Inten    --      3.4954                 8.5248                34.3734

                     58                     59                     60
                      A                      A                      A
 Frequencies --   3233.5348              3270.9865              3763.5887
 Red. masses --      1.0988                 1.0955                 1.0674
 Frc consts  --      6.7691                 6.9061                 8.9081
 IR Inten    --     12.9600                 1.4734                92.0218

 - Thermochemistry -
 -------------------
 Temperature   298.150 Kelvin.  Pressure   1.00000 Atm.
 Atom     1 has atomic number  8 and mass  15.99491

 Molecular mass:   200.02959 amu.
 Principal axes and moments of inertia in atomic units:
                           1         2         3
     Eigenvalues --  1706.925153398.695534953.15613
           X            0.99978  -0.02110  -0.00185
           Y            0.02110   0.99977  -0.00351
           Z            0.00192   0.00347   0.99999
 This molecule is an asymmetric top.
 Rotational symmetry number  1.
 Warning -- assumption of classical behavior for rotation
           may cause significant error
 Rotational temperatures (Kelvin)      0.05074     0.02548     0.01749
 Rotational constants (GHZ):           1.05731     0.53101     0.36436
 Zero-point vibrational energy     417694.6 (Joules/Mol)
                                   99.83140 (Kcal/Mol)
 Warning -- explicit consideration of  15 degrees of freedom as
           vibrations may cause significant error
 Vibrational temperatures:     92.65   134.27   174.34   246.01   270.77
          (Kelvin)            346.55   358.83   415.87   417.30   520.75
                              564.38   666.67   775.37   817.57   841.35
                              895.72   905.81   968.55  1060.48  1085.16
                             1094.74  1121.28  1130.33  1146.86  1157.54
                             1211.70  1226.49  1232.03  1263.43  1285.23
                             1311.68  1368.99  1460.58  1510.81  1563.84
                             1572.38  1579.36  1629.29  1685.54  1697.80
                             1738.48  1750.28  1788.01  1839.30  1919.80
                             1927.52  1979.34  2027.50  2084.20  2173.04
                             2295.62  2372.36  4536.47  4581.61  4622.07
                             4625.34  4631.48  4652.34  4706.22  5414.96

 Zero-point correction=                           0.159091 (Hartree/Particle)
 Thermal correction to Energy=                    0.170411
 Thermal correction to Enthalpy=                  0.171355
 Thermal correction to Gibbs Free Energy=         0.121628
 Sum of electronic and zero-point Energies=           -935.162266
 Sum of electronic and thermal Energies=              -935.150946
 Sum of electronic and thermal Enthalpies=            -935.150002
 Sum of electronic and thermal Free Energies=         -935.199729

                     E (Thermal)             CV                S
                      KCal/Mol        Cal/Mol-Kelvin    Cal/Mol-Kelvin
 Total                  106.935             45.263            104.661
 Electronic               0.000              0.000              0.000
 Translational            0.889              2.981             41.785
 Rotational               0.889              2.981             31.730
 Vibrational            105.157             39.301             31.146
 Vibration     1          0.597              1.971              4.318
 Vibration     2          0.602              1.954              3.589
 Vibration     3          0.609              1.932              3.082
 Vibration     4          0.626              1.878              2.425
 Vibration     5          0.633              1.856              2.246
 Vibration     6          0.658              1.778              1.796
 Vibration     7          0.662              1.764              1.735
 Vibration     8          0.686              1.694              1.480
 Vibration     9          0.686              1.692              1.474
 Vibration    10          0.736              1.551              1.114
 Vibration    11          0.760              1.487              0.992
 Vibration    12          0.821              1.331              0.756
 Vibration    13          0.894              1.164              0.568
 Vibration    14          0.924              1.100              0.508
 Vibration    15          0.942              1.064              0.477
