 Gaussian 16, Revision A.03,
 Gaussian 16:  ES64L-G16RevA.03 25-Dec-2016

 -----------------------------
 # opt freq b3lyp/6-31g(2df,p)
 -----------------------------

 -------------------
 Title Card Required
 -------------------
 Symbolic Z-matrix:
 Charge =  0 Multiplicity = 1

 SCF Done:  E(RB3LYP) =  -1750.88005203     A.U. after   20 cycles
 SCF Done:  E(RB3LYP) =  -1750.96953158     A.U. after   15 cycles
 SCF Done:  E(RB3LYP) =  -1751.07096777     A.U. after   15 cycles
 SCF Done:  E(RB3LYP) =  -1751.13635617     A.U. after   15 cycles
 SCF Done:  E(RB3LYP) =  -1751.16883431     A.U. after   14 cycles
 SCF Done:  E(RB3LYP) =  -1751.18439766     A.U. after   14 cycles
 SCF Done:  E(RB3LYP) =  -1751.19371982     A.U. after   14 cycles
 SCF Done:  E(RB3LYP) =  -1751.20504184     A.U. after   14 cycles
 SCF Done:  E(RB3LYP) =  -1751.21527302     A.U. after   14 cycles
 SCF Done:  E(RB3LYP) =  -1751.22350642     A.U. after   14 cycles
 SCF Done:  E(RB3LYP) =  -1751.23159485     A.U. after   13 cycles
 SCF Done:  E(RB3LYP) =  -1751.23240000     A.U. after   13 cycles
 SCF Done:  E(RB3LYP) =  -1751.23266596     A.U. after   12 cycles
 SCF Done:  E(RB3LYP) =  -1751.23292123     A.U. after   11 cycles
 SCF Done:  E(RB3LYP) =  -1751.23295598     A.U. after   11 cycles
 SCF Done:  E(RB3LYP) =  -1751.23296771     A.U. after   10 cycles
 SCF Done:  E(RB3LYP) =  -1751.23297035     A.U. after    8 cycles
 SCF Done:  E(RB3LYP) =  -1751.23297099     A.U. after    8 cycles
 SCF Done:  E(RB3LYP) =  -1751.23297120     A.U. after    7 cycles
 Optimization completed.
    -- Stationary point found.
 Normal termination of Gaussian 16 at Wed May 17 04:14:46 2023.

 ----------------------------------------------------------------------
 #N Geom=AllCheck Guess=TCheck SCRF=Check GenChk RB3LYP/6-31G(2df,p) Fr
 eq
 ----------------------------------------------------------------------

 Structure from the checkpoint file:  "Sc1ccssc2ccccccc-2cnc1.chk"
 -------------------
 Title Card Required
 -------------------
 Charge =  0 Multiplicity = 1

                         Standard orientation:
 ---------------------------------------------------------------------
 Center     Atomic      Atomic             Coordinates (Angstroms)
 Number     Number       Type             X           Y           Z
 ---------------------------------------------------------------------
      1         16           0       -4.093423    1.377474    0.562935
      2          6           0       -2.727515    0.473507   -0.148794
      3          6           0       -1.994964   -0.461093    0.699988
      4          6           0       -1.565311   -1.661037    0.294911
      5         16           0       -0.280604   -2.524768    1.160393
      6         16           0        1.220551   -2.331788   -0.297356
      7          6           0        1.767292   -0.614033   -0.301147
      8          6           0        3.091219   -0.427482   -0.170574
      9          6           0        3.846123    0.816203   -0.372998
     10          6           0        3.653854    1.980482    0.258689
     11          6           0        2.622476    2.285642    1.257165
     12          6           0        1.302867    2.096968    1.137351
     13          6           0        0.588290    1.584499   -0.036068
     14          6           0        0.766560    0.420841   -0.683022
     15          6           0       -0.055741    0.082543   -1.880503
     16          7           0       -1.279774    0.311889   -2.148744
     17          6           0       -2.296502    0.845879   -1.381673
     18          1           0       -4.848315    0.321943    0.931055
     19          1           0       -1.705530   -0.092008    1.682752
     20          1           0       -1.848632   -2.078886   -0.665204
     21          1           0        3.698054   -1.305014    0.050469
     22          1           0        4.713645    0.725460   -1.025596
     23          1           0        4.376267    2.776202    0.081145
     24          1           0        2.981849    2.785945    2.155415
     25          1           0        0.661007    2.461288    1.938714
     26          1           0       -0.218529    2.225285   -0.389160
     27          1           0        0.495626   -0.462162   -2.652233
     28          1           0       -2.883307    1.586513   -1.921659
 ---------------------------------------------------------------------

 SCF Done:  E(RB3LYP) =  -1751.23297120     A.U. after    1 cycles

 The electronic state is 1-A.
 Alpha  occ. eigenvalues --  -88.90060 -88.89711 -88.88094 -14.34557 -10.24903
 Alpha  occ. eigenvalues --  -10.23467 -10.23236 -10.22326 -10.21856 -10.21429
 Alpha  occ. eigenvalues --  -10.21316 -10.21302 -10.20758 -10.20683 -10.20666
 Alpha  occ. eigenvalues --  -10.20591 -10.20526  -7.96198  -7.95873  -7.94581
 Alpha  occ. eigenvalues --   -5.92706  -5.92391  -5.92323  -5.92018  -5.91727
 Alpha  occ. eigenvalues --   -5.91369  -5.91034  -5.90698  -5.90125  -0.94415
 Alpha  occ. eigenvalues --   -0.86457  -0.83964  -0.82220  -0.80361  -0.79246
 Alpha  occ. eigenvalues --   -0.75437  -0.73000  -0.71028  -0.69194  -0.65021
 Alpha  occ. eigenvalues --   -0.62929  -0.59360  -0.57369  -0.56950  -0.53712
 Alpha  occ. eigenvalues --   -0.51325  -0.50037  -0.48101  -0.47265  -0.46930
 Alpha  occ. eigenvalues --   -0.46026  -0.45753  -0.43595  -0.42213  -0.41487
 Alpha  occ. eigenvalues --   -0.39721  -0.39203  -0.37375  -0.36871  -0.36451
 Alpha  occ. eigenvalues --   -0.35318  -0.34507  -0.32778  -0.30962  -0.29812
 Alpha  occ. eigenvalues --   -0.28046  -0.27731  -0.26453  -0.25781  -0.23526
 Alpha  occ. eigenvalues --   -0.22468  -0.20854
 Alpha virt. eigenvalues --   -0.07722  -0.06640  -0.02767  -0.01278   0.00134
 Alpha virt. eigenvalues --    0.02738   0.03070   0.03708   0.05445   0.07141
 Alpha virt. eigenvalues --    0.07580   0.08572   0.09912   0.11443   0.12942

 Mulliken charges:
               1
     1  S   -0.285954
     2  C    0.131091
     3  C   -0.123501
     4  C   -0.124529
     5  S   -0.086855
     6  S   -0.130779
     7  C    0.110149
     8  C   -0.145353
     9  C   -0.119478
    10  C   -0.090157
    11  C   -0.093216
    12  C   -0.116239
    13  C   -0.162919
    14  C    0.150602
    15  C   -0.031569
    16  N   -0.192959
    17  C   -0.055937
    18  H    0.162011
    19  H    0.125313
    20  H    0.137586
    21  H    0.129066
    22  H    0.108301
    23  H    0.107312
    24  H    0.107821
    25  H    0.111856
    26  H    0.118427
    27  H    0.126452
    28  H    0.133457
 Sum of Mulliken charges =  -0.00000

 Dipole moment (field-independent basis, Debye):
    X=              2.2867    Y=              2.0046    Z=              0.1907  Tot=              3.0469
 Quadrupole moment (field-independent basis, Debye-Ang):
   XX=           -110.5088   YY=           -121.7520   ZZ=           -120.9776
   XY=              7.2467   XZ=             -2.9098   YZ=              2.4521

  Exact polarizability: 271.132  -3.101 198.305 -13.555   7.829 154.919
 Approx polarizability: 431.051 -16.000 351.851 -38.128  23.290 300.895

                      1                      2                      3
                      A                      A                      A
 Frequencies --     45.1095                66.5503                79.4079
 Red. masses --      7.4509                 5.9230                 5.6983
 Frc consts  --      0.0089                 0.0155                 0.0212
 IR Inten    --      0.3439                 0.6639                 0.6856

                      4                      5                      6
                      A                      A                      A
 Frequencies --    115.2053               139.5224               156.9255
 Red. masses --      4.6097                 6.4125                 5.8439
 Frc consts  --      0.0360                 0.0735                 0.0848
 IR Inten    --      1.9816                 2.1585                 0.7151

                      7                      8                      9
                      A                      A                      A
 Frequencies --    181.2026               183.9374               210.2903
 Red. masses --      3.6601                 4.6434                 2.2129
 Frc consts  --      0.0708                 0.0926                 0.0577
 IR Inten    --      7.0650                 2.1221                15.7315

                     10                     11                     12
                      A                      A                      A
 Frequencies --    224.7506               237.8954               248.5153
 Red. masses --      3.5355                 3.9519                 2.6927
 Frc consts  --      0.1052                 0.1318                 0.0980
 IR Inten    --      0.3866                 2.8344                 9.0737

                     13                     14                     15
                      A                      A                      A
 Frequencies --    252.4210               271.3520               304.5030
 Red. masses --      4.1474                 3.6197                 3.3818
 Frc consts  --      0.1557                 0.1570                 0.1847
 IR Inten    --      1.1291                 0.3379                 6.1241

                     16                     17                     18
                      A                      A                      A
 Frequencies --    348.7986               353.6322               384.1208
 Red. masses --      3.0861                 3.7637                 6.9493
 Frc consts  --      0.2212                 0.2773                 0.6041
 IR Inten    --      2.0852                 0.3345                 2.2376

                     19                     20                     21
                      A                      A                      A
 Frequencies --    391.8112               425.4589               443.9958
 Red. masses --      6.2267                 6.2704                 5.6989
 Frc consts  --      0.5632                 0.6687                 0.6619
 IR Inten    --      1.6270                 5.9739                 1.5339

                     22                     23                     24
                      A                      A                      A
 Frequencies --    474.0217               480.2407               552.6388
 Red. masses --      7.8827                 7.5440                 3.8692
 Frc consts  --      1.0436                 1.0251                 0.6962
 IR Inten    --      5.0881                 1.0490                 3.5192

                     25                     26                     27
                      A                      A                      A
 Frequencies --    568.7746               612.7138               653.9993
 Red. masses --      4.3944                 5.3139                 2.7996
 Frc consts  --      0.8376                 1.1754                 0.7055
 IR Inten    --      7.9200                 1.8799                17.7545

                     28                     29                     30
                      A                      A                      A
 Frequencies --    678.6472               710.2545               760.0969
 Red. masses --      3.7922                 1.6320                 3.5523
 Frc consts  --      1.0290                 0.4851                 1.2092
 IR Inten    --     10.5773                44.5708                11.6551

                     31                     32                     33
                      A                      A                      A
 Frequencies --    787.7416               815.4918               827.6782
 Red. masses --      3.4976                 2.7841                 2.2243
 Frc consts  --      1.2788                 1.0909                 0.8978
 IR Inten    --     22.0214                 1.9927                21.0301

                     34                     35                     36
                      A                      A                      A
 Frequencies --    838.6402               887.6280               895.9093
 Red. masses --      2.3156                 2.0567                 2.3019
 Frc consts  --      0.9595                 0.9548                 1.0886
 IR Inten    --      1.7658                14.1339                10.1774

                     37                     38                     39
                      A                      A                      A
 Frequencies --    923.2294               931.1626               938.5150
 Red. masses --      1.8767                 2.0528                 1.3847
 Frc consts  --      0.9425                 1.0487                 0.7186
 IR Inten    --     36.2905                 3.2366                 6.6943

                     40                     41                     42
                      A                      A                      A
 Frequencies --    940.4587               961.1455               972.9928
 Red. masses --      2.6281                 1.6983                 2.7343
 Frc consts  --      1.3695                 0.9244                 1.5252
 IR Inten    --      6.7521                 2.5508                13.4462

                     43                     44                     45
                      A                      A                      A
 Frequencies --    982.3481               990.9198              1000.7783
 Red. masses --      1.3462                 1.3546                 1.5371
 Frc consts  --      0.7654                 0.7837                 0.9071
 IR Inten    --     15.6711                 0.8407                 4.5237

                     46                     47                     48
                      A                      A                      A
 Frequencies --   1006.6783              1016.3452              1076.3058
 Red. masses --      2.0810                 2.5146                 2.1898
 Frc consts  --      1.2425                 1.5304                 1.4946
 IR Inten    --     24.3837                18.2584                 5.3711

                     49                     50                     51
                      A                      A                      A
 Frequencies --   1101.5866              1151.3504              1238.4696
 Red. masses --      3.3369                 2.9817                 1.1884
 Frc consts  --      2.3857                 2.3288                 1.0739
 IR Inten    --      1.6684                12.1474                 4.6831

                     52                     53                     54
                      A                      A                      A
 Frequencies --   1240.6811              1249.4340              1316.6208
 Red. masses --      1.0638                 1.1238                 1.2499
 Frc consts  --      0.9648                 1.0336                 1.2766
 IR Inten    --      1.9043                 1.0382                 7.4076

                     55                     56                     57
                      A                      A                      A
 Frequencies --   1320.9797              1375.5280              1381.0133
 Red. masses --      1.2611                 1.4011                 1.4776
 Frc consts  --      1.2966                 1.5619                 1.6604
 IR Inten    --      5.3996                 6.1958                 0.2788

                     58                     59                     60
                      A                      A                      A
 Frequencies --   1402.9265              1438.1461              1449.6106
 Red. masses --      1.3579                 1.3112                 1.6316
 Frc consts  --      1.5747                 1.5978                 2.0200
 IR Inten    --      0.5777                 4.2329                 1.5902

                     61                     62                     63
                      A                      A                      A
 Frequencies --   1583.4338              1640.8179              1656.7520
 Red. masses --      6.8815                 6.6519                 7.8536
 Frc consts  --     10.1656                10.5516                12.7008
 IR Inten    --     35.2994                12.8923                 8.2083

                     64                     65                     66
                      A                      A                      A
 Frequencies --   1682.2910              1698.2502              1707.3458
 Red. masses --      7.3980                 6.0237                10.5344
 Frc consts  --     12.3358                10.2356                18.0927
 IR Inten    --     26.5691                 1.2892                39.9691

                     67                     68                     69
                      A                      A                      A
 Frequencies --   1721.0828              2641.8148              3082.5181
 Red. masses --     10.6112                 1.0388                 1.0856
 Frc consts  --     18.5189                 4.2716                 6.0777
 IR Inten    --     50.6861                10.3155                16.1949

                     70                     71                     72
                      A                      A                      A
 Frequencies --   3120.2237              3123.4576              3131.3524
 Red. masses --      1.0807                 1.0818                 1.0864
 Frc consts  --      6.1991                 6.2184                 6.2766
 IR Inten    --      0.4373                 0.2904                 4.4312

                     73                     74                     75
                      A                      A                      A
 Frequencies --   3135.5234              3139.4315              3142.5354
 Red. masses --      1.0860                 1.0880                 1.0923
 Frc consts  --      6.2905                 6.3178                 6.3556
 IR Inten    --      7.7195                 1.3962                28.3174

                     76                     77                     78
                      A                      A                      A
 Frequencies --   3147.6966              3148.7830              3185.3298
 Red. masses --      1.0870                 1.0943                 1.0908
 Frc consts  --      6.3454                 6.3923                 6.5210
 IR Inten    --      6.7067                30.8602                 4.5124

 - Thermochemistry -
 -------------------
 Temperature   298.150 Kelvin.  Pressure   1.00000 Atm.
 Atom     1 has atomic number 16 and mass  31.97207

 Molecular mass:   277.00536 amu.
 Principal axes and moments of inertia in atomic units:
                           1         2         3
     Eigenvalues --  3548.050616457.018798135.88377
           X            0.99977   0.02162   0.00141
           Y           -0.02164   0.99958   0.01903
           Z           -0.00100  -0.01906   0.99982
 This molecule is an asymmetric top.
 Rotational symmetry number  1.
 Warning -- assumption of classical behavior for rotation
           may cause significant error
 Rotational temperatures (Kelvin)      0.02441     0.01341     0.01065
 Rotational constants (GHZ):           0.50866     0.27950     0.22182
 Zero-point vibrational energy     530578.2 (Joules/Mol)
                                  126.81123 (Kcal/Mol)
 Warning -- explicit consideration of  26 degrees of freedom as
           vibrations may cause significant error
 Vibrational temperatures:     64.90    95.75   114.25   165.75   200.74
          (Kelvin)            225.78   260.71   264.64   302.56   323.37
                              342.28   357.56   363.18   390.42   438.11
                              501.84   508.80   552.66   563.73   612.14
                              638.81   682.01   690.96   795.12   818.34
                              881.56   940.96   976.42  1021.90  1093.61
                             1133.38  1173.31  1190.84  1206.62  1277.10
                             1289.01  1328.32  1339.74  1350.31  1353.11
                             1382.87  1399.92  1413.38  1425.71  1439.90
                             1448.39  1462.29  1548.56  1584.94  1656.54
                             1781.88  1785.06  1797.66  1894.32  1900.60
                             1979.08  1986.97  2018.50  2069.17  2085.67
                             2278.21  2360.77  2383.70  2420.44  2443.40
                             2456.49  2476.25  3800.98  4435.06  4489.31
                             4493.96  4505.32  4511.32  4516.94  4521.41
                             4528.83  4530.40  4582.98

 Zero-point correction=                           0.202087 (Hartree/Particle)
 Thermal correction to Energy=                    0.218357
 Thermal correction to Enthalpy=                  0.219301
 Thermal correction to Gibbs Free Energy=         0.158586
 Sum of electronic and zero-point Energies=          -1751.030885
 Sum of electronic and thermal Energies=             -1751.014614
 Sum of electronic and thermal Enthalpies=           -1751.013670
 Sum of electronic and thermal Free Energies=        -1751.074386

                     E (Thermal)             CV                S
                      KCal/Mol        Cal/Mol-Kelvin    Cal/Mol-Kelvin
 Total                  137.021             62.255            127.787
 Electronic               0.000              0.000              0.000
 Translational            0.889              2.981             42.755
 Rotational               0.889              2.981             33.588
 Vibrational            135.244             56.293             51.444
 Vibration     1          0.595              1.979              5.021
 Vibration     2          0.598              1.970              4.253
 Vibration     3          0.600              1.963              3.905
 Vibration     4          0.608              1.937              3.179
 Vibration     5          0.615              1.914              2.810
 Vibration     6          0.621              1.895              2.587
 Vibration     7          0.630              1.865              2.316
 Vibration     8          0.631              1.862              2.288
 Vibration     9          0.642              1.825              2.041
 Vibration    10          0.649              1.803              1.920
 Vibration    11          0.656              1.783              1.819
 Vibration    12          0.662              1.765              1.741
 Vibration    13          0.664              1.759              1.714
 Vibration    14          0.675              1.726              1.588
 Vibration    15          0.695              1.665              1.392
 Vibration    16          0.726              1.578              1.172
 Vibration    17          0.730              1.568              1.150
 Vibration    18          0.753              1.504              1.023
 Vibration    19          0.759              1.488              0.993
 Vibration    20          0.787              1.415              0.874
 Vibration    21          0.804              1.374              0.814
 Vibration    22          0.831              1.308              0.726
 Vibration    23          0.837              1.294              0.709
 Vibration    24          0.908              1.134              0.539
 Vibration    25          0.925              1.099              0.507
 Vibration    26          0.972              1.005              0.428

                           ! Non-Optimized Parameters !
 Normal termination of Gaussian 16 at Wed May 17 07:34:20 2023.
