 Gaussian 16, Revision A.03,
 Gaussian 16:  ES64L-G16RevA.03 25-Dec-2016

 -----------------------------
 # opt freq b3lyp/6-31g(2df,p)
 -----------------------------

 -------------------
 Title Card Required
 -------------------
 Symbolic Z-matrix:
 Charge =  0 Multiplicity = 1

 SCF Done:  E(RB3LYP) =  -1690.99681611     A.U. after   18 cycles
 SCF Done:  E(RB3LYP) =  -1691.04298550     A.U. after   14 cycles
 SCF Done:  E(RB3LYP) =  -1691.08908592     A.U. after   14 cycles
 SCF Done:  E(RB3LYP) =  -1691.10549610     A.U. after   13 cycles
 SCF Done:  E(RB3LYP) =  -1691.11708778     A.U. after   13 cycles
 SCF Done:  E(RB3LYP) =  -1691.12230291     A.U. after   12 cycles
 SCF Done:  E(RB3LYP) =  -1691.12762016     A.U. after   13 cycles
 SCF Done:  E(RB3LYP) =  -1691.13044522     A.U. after   12 cycles
 SCF Done:  E(RB3LYP) =  -1691.13212829     A.U. after   12 cycles
 SCF Done:  E(RB3LYP) =  -1691.13238453     A.U. after   11 cycles
 SCF Done:  E(RB3LYP) =  -1691.13246752     A.U. after   10 cycles
 SCF Done:  E(RB3LYP) =  -1691.13249190     A.U. after    9 cycles
 SCF Done:  E(RB3LYP) =  -1691.13249688     A.U. after    9 cycles
 SCF Done:  E(RB3LYP) =  -1691.13249902     A.U. after    8 cycles
 SCF Done:  E(RB3LYP) =  -1691.13249949     A.U. after    7 cycles
 SCF Done:  E(RB3LYP) =  -1691.13249968     A.U. after    7 cycles
 Optimization completed.
    -- Stationary point found.
 Normal termination of Gaussian 16 at Wed May 17 17:37:06 2023.

 ----------------------------------------------------------------------
 #N Geom=AllCheck Guess=TCheck SCRF=Check GenChk RB3LYP/6-31G(2df,p) Fr
 eq
 ----------------------------------------------------------------------

 Structure from the checkpoint file:  "SC1dCCdCc2n[nH]cc2CdCSSC1.chk"
 -------------------
 Title Card Required
 -------------------
 Charge =  0 Multiplicity = 1

                         Standard orientation:
 ---------------------------------------------------------------------
 Center     Atomic      Atomic             Coordinates (Angstroms)
 Number     Number       Type             X           Y           Z
 ---------------------------------------------------------------------
      1         16           0       -4.017067   -1.692050   -0.033962
      2          6           0       -2.380100   -1.096145    0.308160
      3          6           0       -1.257664   -1.815865    0.071474
      4          6           0        0.063994   -1.287391    0.273781
      5          6           0        1.221571   -1.764123   -0.227333
      6          6           0        2.506116   -1.084688   -0.114086
      7          7           0        3.630011   -1.792149   -0.281269
      8          7           0        4.625861   -0.914937   -0.079710
      9          6           0        4.191393    0.333831    0.207755
     10          6           0        2.810835    0.293952    0.179879
     11          6           0        1.877389    1.401495    0.413667
     12          6           0        0.814449    1.624487   -0.369263
     13         16           0       -0.514687    2.733405    0.012070
     14         16           0       -2.154475    1.591019   -0.545970
     15          6           0       -2.399490    0.318553    0.824873
     16          1           0       -3.669567   -2.858447   -0.608822
     17          1           0       -1.344893   -2.809998   -0.361342
     18          1           0        0.116861   -0.365985    0.833713
     19          1           0        1.245515   -2.706142   -0.770533
     20          1           0        5.577168   -1.232003   -0.160998
     21          1           0        4.874649    1.150407    0.381186
     22          1           0        2.030909    2.012505    1.301275
     23          1           0        0.642120    1.033188   -1.262352
     24          1           0       -3.358949    0.557000    1.288676
     25          1           0       -1.616196    0.506449    1.558381
 ---------------------------------------------------------------------

 SCF Done:  E(RB3LYP) =  -1691.13249968     A.U. after    1 cycles

 The electronic state is 1-A.
 Alpha  occ. eigenvalues --  -88.90270 -88.89407 -88.89101 -14.41271 -14.34850
 Alpha  occ. eigenvalues --  -10.23365 -10.23111 -10.22782 -10.21541 -10.21341
 Alpha  occ. eigenvalues --  -10.20310 -10.19649 -10.19520 -10.19120 -10.18735
 Alpha  occ. eigenvalues --   -7.96401  -7.95641  -7.95633  -5.92902  -5.92519
 Alpha  occ. eigenvalues --   -5.92163  -5.92094  -5.91950  -5.91757  -5.91709
 Alpha  occ. eigenvalues --   -5.91218  -5.91106  -1.05165  -0.85352  -0.83737
 Alpha  occ. eigenvalues --   -0.82796  -0.80277  -0.77704  -0.75834  -0.72132
 Alpha  occ. eigenvalues --   -0.70445  -0.64721  -0.61903  -0.59683  -0.57554
 Alpha  occ. eigenvalues --   -0.54560  -0.53831  -0.53610  -0.49261  -0.47201
 Alpha  occ. eigenvalues --   -0.46494  -0.45098  -0.43437  -0.43049  -0.42065
 Alpha  occ. eigenvalues --   -0.41157  -0.39992  -0.38936  -0.36956  -0.36192
 Alpha  occ. eigenvalues --   -0.34587  -0.34120  -0.33137  -0.30800  -0.30318
 Alpha  occ. eigenvalues --   -0.28902  -0.26285  -0.25866  -0.24581  -0.21785
 Alpha  occ. eigenvalues --   -0.19610
 Alpha virt. eigenvalues --   -0.05332  -0.04168  -0.00413   0.01283   0.01593
 Alpha virt. eigenvalues --    0.04157   0.05460   0.07010   0.07514   0.07604
 Alpha virt. eigenvalues --    0.11032   0.11327   0.12463   0.13447   0.13821

 Mulliken charges:
               1
     1  S   -0.230165
     2  C    0.198163
     3  C   -0.153479
     4  C   -0.072078
     5  C   -0.191609
     6  C    0.284781
     7  N   -0.291913
     8  N   -0.188980
     9  C   -0.102492
    10  C    0.115352
    11  C   -0.230069
    12  C   -0.104291
    13  S   -0.074491
    14  S   -0.063823
    15  C   -0.333131
    16  H    0.159978
    17  H    0.087927
    18  H    0.095784
    19  H    0.100063
    20  H    0.279218
    21  H    0.143393
    22  H    0.110386
    23  H    0.142141
    24  H    0.152349
    25  H    0.166982
 Sum of Mulliken charges =  -0.00000

 Dipole moment (field-independent basis, Debye):
    X=              3.4259    Y=             -0.6472    Z=              0.9250  Tot=              3.6071
 Quadrupole moment (field-independent basis, Debye-Ang):
   XX=            -88.8206   YY=           -111.3245   ZZ=           -109.5366
   XY=              8.6725   XZ=              0.4523   YZ=              5.0392

  Exact polarizability: 316.399  -2.919 175.765   2.258   9.805  97.823
 Approx polarizability: 542.471 -27.353 295.689   2.220  21.029 181.999

                      1                      2                      3
                      A                      A                      A
 Frequencies --     56.6023                68.7845                97.0123
 Red. masses --      6.9500                 6.1070                 6.1674
 Frc consts  --      0.0131                 0.0170                 0.0342
 IR Inten    --      1.5009                 0.1693                 0.1644

                      4                      5                      6
                      A                      A                      A
 Frequencies --    129.8291               147.5546               163.1154
 Red. masses --      4.3136                 7.0905                 4.4383
 Frc consts  --      0.0428                 0.0910                 0.0696
 IR Inten    --      1.2180                 1.5318                 3.0435

                      7                      8                      9
                      A                      A                      A
 Frequencies --    178.7582               199.3403               231.2606
 Red. masses --      7.2652                 3.4628                 1.5953
 Frc consts  --      0.1368                 0.0811                 0.0503
 IR Inten    --      0.6120                 0.4846                 7.4260

                     10                     11                     12
                      A                      A                      A
 Frequencies --    242.6061               259.4612               279.0573
 Red. masses --      3.6834                 1.8224                 3.6966
 Frc consts  --      0.1277                 0.0723                 0.1696
 IR Inten    --      0.4144                12.0047                 7.1130

                     13                     14                     15
                      A                      A                      A
 Frequencies --    306.0678               340.1148               367.8301
 Red. masses --      6.0905                 5.2092                 2.8686
 Frc consts  --      0.3362                 0.3550                 0.2287
 IR Inten    --      0.3647                 0.9459                 1.7808

                     16                     17                     18
                      A                      A                      A
 Frequencies --    385.7183               427.9265               448.9940
 Red. masses --      5.1462                 6.0752                 4.2934
 Frc consts  --      0.4511                 0.6555                 0.5100
 IR Inten    --      0.3332                 2.7469                 2.7521

                     19                     20                     21
                      A                      A                      A
 Frequencies --    484.6924               507.8103               519.7661
 Red. masses --     10.5530                 6.5055                 1.6608
 Frc consts  --      1.4607                 0.9884                 0.2643
 IR Inten    --      1.1036                10.5980                52.7280

                     22                     23                     24
                      A                      A                      A
 Frequencies --    530.1294               663.7128               670.8229
 Red. masses --      5.2053                 2.1749                 4.9430
 Frc consts  --      0.8619                 0.5645                 1.3106
 IR Inten    --     11.8143                14.1695                 5.4371

                     25                     26                     27
                      A                      A                      A
 Frequencies --    717.7751               725.7369               739.1761
 Red. masses --      4.3250                 6.6006                 4.4835
 Frc consts  --      1.3128                 2.0483                 1.4433
 IR Inten    --      8.8543                15.7321                11.7893

                     28                     29                     30
                      A                      A                      A
 Frequencies --    785.6858               791.5407               832.2438
 Red. masses --      2.7915                 1.4605                 3.1270
 Frc consts  --      1.0153                 0.5391                 1.2761
 IR Inten    --      4.3192                14.8815                 3.5634

                     31                     32                     33
                      A                      A                      A
 Frequencies --    856.2367               872.1784               877.5266
 Red. masses --      2.1746                 1.7660                 1.7520
 Frc consts  --      0.9393                 0.7915                 0.7949
 IR Inten    --      0.7144                 0.3588                 2.1610

                     34                     35                     36
                      A                      A                      A
 Frequencies --    910.8759               939.8546               946.0916
 Red. masses --      1.8589                 1.3773                 4.6362
 Frc consts  --      0.9087                 0.7168                 2.4450
 IR Inten    --      7.2079                 9.8338                 2.4326

                     37                     38                     39
                      A                      A                      A
 Frequencies --    992.6182              1017.0132              1027.1032
 Red. masses --      1.1161                 2.7429                 1.0927
 Frc consts  --      0.6479                 1.6715                 0.6792
 IR Inten    --     53.8191                50.3766                27.7975

                     40                     41                     42
                      A                      A                      A
 Frequencies --   1087.1497              1156.0896              1173.8067
 Red. masses --      1.9330                 2.1738                 1.2883
 Frc consts  --      1.3461                 1.7118                 1.0458
 IR Inten    --     45.3818                10.1812                11.8264

                     43                     44                     45
                      A                      A                      A
 Frequencies --   1193.7483              1226.7697              1233.6233
 Red. masses --      2.6479                 1.5754                 1.2772
 Frc consts  --      2.2232                 1.3969                 1.1452
 IR Inten    --      6.1503                 7.5360                 5.8924

                     46                     47                     48
                      A                      A                      A
 Frequencies --   1240.6478              1278.0825              1309.4879
 Red. masses --      1.8221                 1.7249                 1.4953
 Frc consts  --      1.6524                 1.6601                 1.5108
 IR Inten    --      0.7271                20.9328                 0.5031

                     49                     50                     51
                      A                      A                      A
 Frequencies --   1329.7324              1343.6132              1360.4327
 Red. masses --      1.8805                 1.4645                 1.8191
 Frc consts  --      1.9591                 1.5578                 1.9837
 IR Inten    --     17.4648                 1.6083                 5.5436

                     52                     53                     54
                      A                      A                      A
 Frequencies --   1381.5149              1454.4140              1476.5923
 Red. masses --      2.6607                 5.7101                 1.1066
 Frc consts  --      2.9920                 7.1165                 1.4215
 IR Inten    --      6.9230                 1.1279                10.7619

                     55                     56                     57
                      A                      A                      A
 Frequencies --   1493.3352              1569.2855              1623.6277
 Red. masses --      2.4539                 4.4956                 6.6715
 Frc consts  --      3.2243                 6.5229                10.3621
 IR Inten    --     12.4873                15.8399                18.6240

                     58                     59                     60
                      A                      A                      A
 Frequencies --   1651.5325              1680.1086              2679.2540
 Red. masses --      6.7117                 5.1847                 1.0383
 Frc consts  --     10.7858                 8.6227                 4.3912
 IR Inten    --      0.4881                 2.4061                 2.7378

                     61                     62                     63
                      A                      A                      A
 Frequencies --   3078.7111              3140.4286              3142.8887
 Red. masses --      1.0611                 1.0882                 1.1043
 Frc consts  --      5.9257                 6.3232                 6.4270
 IR Inten    --      7.8878                 7.3424                 1.2971

                     64                     65                     66
                      A                      A                      A
 Frequencies --   3147.2571              3156.7113              3184.9607
 Red. masses --      1.0884                 1.0884                 1.0904
 Frc consts  --      6.3520                 6.3904                 6.5169
 IR Inten    --     12.2902                11.1980                 3.1068

                     67                     68                     69
                      A                      A                      A
 Frequencies --   3240.2580              3259.3457              3672.0562
 Red. masses --      1.0847                 1.0977                 1.0811
 Frc consts  --      6.7099                 6.8706                 8.5891
 IR Inten    --      5.5024                 1.0766               168.5166

 - Thermochemistry -
 -------------------
 Temperature   298.150 Kelvin.  Pressure   1.00000 Atm.
 Atom     1 has atomic number 16 and mass  31.97207

 Molecular mass:   254.00061 amu.
 Principal axes and moments of inertia in atomic units:
                           1         2         3
     Eigenvalues --  2571.571276745.060609061.65351
           X            0.99995   0.00992  -0.00108
           Y           -0.00991   0.99988   0.01211
           Z            0.00120  -0.01210   0.99993
 This molecule is an asymmetric top.
 Rotational symmetry number  1.
 Warning -- assumption of classical behavior for rotation
           may cause significant error
 Rotational temperatures (Kelvin)      0.03368     0.01284     0.00956
 Rotational constants (GHZ):           0.70180     0.26756     0.19916
 Zero-point vibrational energy     476736.3 (Joules/Mol)
                                  113.94272 (Kcal/Mol)
 Warning -- explicit consideration of  22 degrees of freedom as
           vibrations may cause significant error
 Vibrational temperatures:     81.44    98.97   139.58   186.80   212.30
          (Kelvin)            234.69   257.19   286.81   332.73   349.06
                              373.31   401.50   440.36   489.35   529.23
                              554.96   615.69   646.00   697.36   730.63
                              747.83   762.74   954.93   965.16  1032.72
                             1044.17  1063.51  1130.43  1138.85  1197.41
                             1231.93  1254.87  1262.56  1310.55  1352.24
                             1361.21  1428.16  1463.26  1477.77  1564.17
                             1663.36  1688.85  1717.54  1765.05  1774.91
                             1785.02  1838.88  1884.06  1913.19  1933.16
                             1957.36  1987.69  2092.58  2124.49  2148.58
                             2257.85  2336.04  2376.19  2417.30  3854.85
                             4429.58  4518.38  4521.92  4528.20  4541.80
                             4582.45  4662.01  4689.47  5283.27

 Zero-point correction=                           0.181579 (Hartree/Particle)
 Thermal correction to Energy=                    0.196106
 Thermal correction to Enthalpy=                  0.197050
 Thermal correction to Gibbs Free Energy=         0.139863
 Sum of electronic and zero-point Energies=          -1690.950920
 Sum of electronic and thermal Energies=             -1690.936394
 Sum of electronic and thermal Enthalpies=           -1690.935449
 Sum of electronic and thermal Free Energies=        -1690.992637

                     E (Thermal)             CV                S
                      KCal/Mol        Cal/Mol-Kelvin    Cal/Mol-Kelvin
 Total                  123.058             55.187            120.361
 Electronic               0.000              0.000              0.000
 Translational            0.889              2.981             42.497
 Rotational               0.889              2.981             33.419
 Vibrational            121.281             49.226             44.446
 Vibration     1          0.596              1.975              4.572
 Vibration     2          0.598              1.969              4.188
 Vibration     3          0.603              1.951              3.513
 Vibration     4          0.612              1.923              2.949
 Vibration     5          0.617              1.905              2.704
 Vibration     6          0.623              1.888              2.513
 Vibration     7          0.629              1.868              2.341
 Vibration     8          0.637              1.841              2.139
 Vibration     9          0.653              1.793              1.869
 Vibration    10          0.659              1.775              1.784
 Vibration    11          0.668              1.747              1.665
 Vibration    12          0.679              1.712              1.539
 Vibration    13          0.696              1.662              1.384
 Vibration    14          0.720              1.595              1.212
 Vibration    15          0.740              1.538              1.089
 Vibration    16          0.754              1.501              1.017
 Vibration    17          0.789              1.409              0.865
 Vibration    18          0.808              1.363              0.799
 Vibration    19          0.841              1.284              0.698
 Vibration    20          0.863              1.233              0.639
 Vibration    21          0.875              1.206              0.611
 Vibration    22          0.885              1.183              0.587

 Optimization completed.
    -- Stationary point found.
 Normal termination of Gaussian 16 at Wed May 17 19:26:00 2023.
