 Gaussian 16, Revision A.03,
 Gaussian 16:  ES64L-G16RevA.03 25-Dec-2016

 -----------------------------
 # opt freq b3lyp/6-31g(2df,p)
 -----------------------------

 -------------------
 Title Card Required
 -------------------
 Symbolic Z-matrix:
 Charge =  0 Multiplicity = 1

 SCF Done:  E(RB3LYP) =  -1354.06297974     A.U. after   19 cycles
 SCF Done:  E(RB3LYP) =  -1354.12247574     A.U. after   13 cycles
 SCF Done:  E(RB3LYP) =  -1354.18572254     A.U. after   14 cycles
 SCF Done:  E(RB3LYP) =  -1354.20559036     A.U. after   13 cycles
 SCF Done:  E(RB3LYP) =  -1354.21090353     A.U. after   12 cycles
 SCF Done:  E(RB3LYP) =  -1354.21354087     A.U. after   12 cycles
 SCF Done:  E(RB3LYP) =  -1354.21570342     A.U. after   13 cycles
 SCF Done:  E(RB3LYP) =  -1354.21753700     A.U. after   12 cycles
 SCF Done:  E(RB3LYP) =  -1354.21975323     A.U. after   13 cycles
 SCF Done:  E(RB3LYP) =  -1354.22186274     A.U. after   12 cycles
 SCF Done:  E(RB3LYP) =  -1354.22856908     A.U. after   11 cycles
 SCF Done:  E(RB3LYP) =  -1354.22861556     A.U. after   10 cycles
 SCF Done:  E(RB3LYP) =  -1354.22862618     A.U. after   10 cycles
 SCF Done:  E(RB3LYP) =  -1354.22863631     A.U. after   11 cycles
 SCF Done:  E(RB3LYP) =  -1354.22864051     A.U. after   10 cycles
 SCF Done:  E(RB3LYP) =  -1354.22864711     A.U. after   10 cycles
 SCF Done:  E(RB3LYP) =  -1354.22864797     A.U. after    8 cycles
 SCF Done:  E(RB3LYP) =  -1354.22864806     A.U. after    7 cycles
 SCF Done:  E(RB3LYP) =  -1354.22864809     A.U. after    7 cycles
 Optimization completed.
    -- Stationary point found.
 Normal termination of Gaussian 16 at Tue May 16 05:32:20 2023.

 ----------------------------------------------------------------------
 #N Geom=AllCheck Guess=TCheck SCRF=Check GenChk RB3LYP/6-31G(2df,p) Fr
 eq
 ----------------------------------------------------------------------

 Structure from the checkpoint file:  "SCC1dCC2dCCdCC2dCCdCCdCSN1.chk"
 -------------------
 Title Card Required
 -------------------
 Charge =  0 Multiplicity = 1

                         Standard orientation:
 ---------------------------------------------------------------------
 Center     Atomic      Atomic             Coordinates (Angstroms)
 Number     Number       Type             X           Y           Z
 ---------------------------------------------------------------------
      1         16           0        3.467578   -1.906603    0.612500
      2          6           0        2.290830   -0.563247    1.092196
      3          6           0        1.063091   -0.518267    0.224680
      4          6           0       -0.124482   -0.954789    0.693978
      5          6           0       -1.422160   -1.112318    0.018468
      6          6           0       -1.713686   -2.006426   -0.968025
      7          6           0       -3.154170   -2.033697   -1.215444
      8          6           0       -3.761833   -1.159825   -0.379109
      9          6           0       -2.726777   -0.479576    0.403636
     10          6           0       -2.923555    0.683850    1.070971
     11          6           0       -1.759522    1.474220    1.492033
     12          6           0       -1.308446    2.479172    0.715497
     13          6           0        0.124359    2.514369    0.468314
     14          6           0        0.583187    2.573588   -0.799111
     15         16           0        1.955394    1.561294   -1.300993
     16          7           0        1.296112   -0.047464   -1.088161
     17          1           0        3.596983   -1.518367   -0.669250
     18          1           0        2.833496    0.383111    1.068058
     19          1           0        2.022607   -0.784514    2.125944
     20          1           0       -0.112661   -1.294125    1.730396
     21          1           0       -0.992803   -2.652022   -1.453675
     22          1           0       -3.635954   -2.658926   -1.955571
     23          1           0       -4.813779   -0.913823   -0.332067
     24          1           0       -3.928519    1.099896    1.121126
     25          1           0       -1.051347    0.989007    2.156001
     26          1           0       -1.960306    2.919568   -0.036561
     27          1           0        0.771589    2.134108    1.253830
     28          1           0       -0.053450    2.941657   -1.600705
     29          1           0        0.482780   -0.170710   -1.683003
 ---------------------------------------------------------------------

 SCF Done:  E(RB3LYP) =  -1354.22864809     A.U. after    1 cycles

 The electronic state is 1-A.
 Alpha  occ. eigenvalues --  -88.90484 -88.86279 -14.36064 -10.23058 -10.22329
 Alpha  occ. eigenvalues --  -10.21957 -10.21770 -10.21460 -10.21291 -10.21095
 Alpha  occ. eigenvalues --  -10.20571 -10.19529 -10.19059 -10.18711 -10.18597
 Alpha  occ. eigenvalues --  -10.18260  -7.96265  -7.92896  -5.92894  -5.92407
 Alpha  occ. eigenvalues --   -5.91745  -5.89341  -5.89019  -5.88400  -0.93388
 Alpha  occ. eigenvalues --   -0.87375  -0.84380  -0.80761  -0.78963  -0.76078
 Alpha  occ. eigenvalues --   -0.74186  -0.70753  -0.67974  -0.64840  -0.63693
 Alpha  occ. eigenvalues --   -0.58179  -0.57725  -0.56769  -0.54613  -0.53062
 Alpha  occ. eigenvalues --   -0.50991  -0.49043  -0.46983  -0.46013  -0.44272
 Alpha  occ. eigenvalues --   -0.43276  -0.43041  -0.41552  -0.40733  -0.39676
 Alpha  occ. eigenvalues --   -0.38944  -0.38555  -0.38018  -0.37046  -0.36297
 Alpha  occ. eigenvalues --   -0.35430  -0.33455  -0.32235  -0.29459  -0.26901
 Alpha  occ. eigenvalues --   -0.25123  -0.24508  -0.22992  -0.21993  -0.20565
 Alpha virt. eigenvalues --   -0.07705  -0.05594  -0.00361   0.00691   0.03240
 Alpha virt. eigenvalues --    0.05281   0.06502   0.07161   0.07597   0.08850
 Alpha virt. eigenvalues --    0.10182   0.11661   0.11789   0.12475   0.12904

 Mulliken charges:
               1
     1  S   -0.267226
     2  C   -0.266037
     3  C    0.319374
     4  C   -0.292842
     5  C    0.144897
     6  C   -0.199202
     7  C   -0.116084
     8  C   -0.177028
     9  C    0.215389
    10  C   -0.208149
    11  C   -0.114990
    12  C   -0.078326
    13  C   -0.039349
    14  C   -0.134690
    15  S   -0.101026
    16  N   -0.377075
    17  H    0.173363
    18  H    0.156039
    19  H    0.133751
    20  H    0.098641
    21  H    0.109459
    22  H    0.102872
    23  H    0.101120
    24  H    0.116821
    25  H    0.114685
    26  H    0.105559
    27  H    0.117952
    28  H    0.113611
    29  H    0.248490
 Sum of Mulliken charges =  -0.00000

 Dipole moment (field-independent basis, Debye):
    X=             -3.3903    Y=              1.6388    Z=              0.3610  Tot=              3.7829
 Quadrupole moment (field-independent basis, Debye-Ang):
   XX=           -111.6427   YY=           -110.9718   ZZ=           -104.1255
   XY=              0.0942   XZ=              0.8521   YZ=              3.4281

  Exact polarizability: 235.761  10.004 184.676  -9.880  13.745 146.958
 Approx polarizability: 362.246  24.108 332.188 -48.002  38.938 297.830
