 Gaussian 16, Revision A.03,
 Gaussian 16:  ES64L-G16RevA.03 25-Dec-2016

 -----------------------------
 # opt freq b3lyp/6-31g(2df,p)
 -----------------------------

 -------------------
 Title Card Required
 -------------------
 Symbolic Z-matrix:
 Charge =  0 Multiplicity = 1

 SCF Done:  E(RB3LYP) =  -1430.25805589     A.U. after   18 cycles
 SCF Done:  E(RB3LYP) =  -1430.30902440     A.U. after   15 cycles
 SCF Done:  E(RB3LYP) =  -1430.36094150     A.U. after   15 cycles
 SCF Done:  E(RB3LYP) =  -1430.38813618     A.U. after   15 cycles
 SCF Done:  E(RB3LYP) =  -1430.41514845     A.U. after   17 cycles
 SCF Done:  E(RB3LYP) =  -1430.42439155     A.U. after   15 cycles
 SCF Done:  E(RB3LYP) =  -1430.42826333     A.U. after   15 cycles
 SCF Done:  E(RB3LYP) =  -1430.42938441     A.U. after   14 cycles
 SCF Done:  E(RB3LYP) =  -1430.43005301     A.U. after   14 cycles
 SCF Done:  E(RB3LYP) =  -1430.43046529     A.U. after   14 cycles
 SCF Done:  E(RB3LYP) =  -1430.43060654     A.U. after   13 cycles
 SCF Done:  E(RB3LYP) =  -1430.43066071     A.U. after   12 cycles
 SCF Done:  E(RB3LYP) =  -1430.43068727     A.U. after   11 cycles
 SCF Done:  E(RB3LYP) =  -1430.43069581     A.U. after   10 cycles
 SCF Done:  E(RB3LYP) =  -1430.43069924     A.U. after   10 cycles
 SCF Done:  E(RB3LYP) =  -1430.43070139     A.U. after   10 cycles
 SCF Done:  E(RB3LYP) =  -1430.43070195     A.U. after    9 cycles
 SCF Done:  E(RB3LYP) =  -1430.43070214     A.U. after    7 cycles
 Optimization completed.
    -- Stationary point found.

 The electronic state is 1-A.
 Alpha  occ. eigenvalues --  -88.92166 -88.87107 -14.35849 -10.24283 -10.22828
 Alpha  occ. eigenvalues --  -10.22601 -10.22411 -10.22395 -10.21945 -10.21549
 Alpha  occ. eigenvalues --  -10.21068 -10.20752 -10.20348 -10.20239 -10.20169
 Alpha  occ. eigenvalues --  -10.19875 -10.19858 -10.16591  -7.97945  -7.93717
 Alpha  occ. eigenvalues --   -5.94521  -5.93971  -5.93603  -5.90164  -5.89839
 Alpha  occ. eigenvalues --   -5.89224  -0.93821  -0.88291  -0.84656  -0.83458
 Alpha  occ. eigenvalues --   -0.80465  -0.77881  -0.77190  -0.73487  -0.72430
 Alpha  occ. eigenvalues --   -0.67473  -0.65872  -0.64804  -0.61089  -0.60572
 Alpha  occ. eigenvalues --   -0.56821  -0.55271  -0.52246  -0.51037  -0.49779
 Alpha  occ. eigenvalues --   -0.48515  -0.47296  -0.46099  -0.45125  -0.44145
 Alpha  occ. eigenvalues --   -0.42915  -0.42646  -0.41778  -0.41183  -0.40228
 Alpha  occ. eigenvalues --   -0.38526  -0.38303  -0.37195  -0.36842  -0.36302
 Alpha  occ. eigenvalues --   -0.35048  -0.33565  -0.33052  -0.31286  -0.30103
 Alpha  occ. eigenvalues --   -0.29246  -0.26618  -0.25665  -0.24017  -0.21032
 Alpha  occ. eigenvalues --   -0.17813
 Alpha virt. eigenvalues --   -0.10816  -0.05922  -0.01480   0.00407   0.01626
 Alpha virt. eigenvalues --    0.02155   0.04046   0.05906   0.07281   0.08340
 Alpha virt. eigenvalues --    0.08637   0.09841   0.11250   0.12419   0.13113

 Mulliken charges:
               1
     1  S   -0.274556
     2  C   -0.188013
     3  C   -0.322816
     4  C    0.107590
     5  C    0.174059
     6  C   -0.388037
     7  C    0.182500
     8  C   -0.256195
     9  C    0.186408
    10  C   -0.137470
    11  C   -0.124364
    12  C   -0.143074
    13  C   -0.117987
    14  C    0.196461
    15  C   -0.218022
    16  S    0.008118
    17  N   -0.200863
    18  C   -0.019570
    19  H    0.155807
    20  H    0.142001
    21  H    0.136581
    22  H    0.127585
    23  H    0.127128
    24  H    0.103802
    25  H    0.104481
    26  H    0.103686
    27  H    0.106921
    28  H    0.105143
    29  H    0.102627
    30  H    0.107157
    31  H    0.112911
 Sum of Mulliken charges =  -0.00000

 Dipole moment (field-independent basis, Debye):
    X=              2.3928    Y=             -2.2385    Z=             -0.6972  Tot=              3.3500
 Quadrupole moment (field-independent basis, Debye-Ang):
   XX=           -113.1233   YY=           -124.8353   ZZ=           -118.2060
   XY=             -4.2638   XZ=             -1.8632   YZ=              0.6609

 Normal termination of Gaussian 16 at Wed May 17 11:58:03 2023.

 ----------------------------------------------------------------------
 #N Geom=AllCheck Guess=TCheck SCRF=Check GenChk RB3LYP/6-31G(2df,p) Fr
 eq
 ----------------------------------------------------------------------

 Structure from the checkpoint file:  "SCCC1dC2CdCqCdc3ccccc3dC2rSNdC1.chk"
 -------------------
 Title Card Required
 -------------------
 Charge =  0 Multiplicity = 1

                         Standard orientation:
 ---------------------------------------------------------------------
 Center     Atomic      Atomic             Coordinates (Angstroms)
 Number     Number       Type             X           Y           Z
 ---------------------------------------------------------------------
      1         16           0       -4.290817   -2.258641   -0.594732
      2          6           0       -3.016005   -0.929393   -0.597039
      3          6           0       -2.687980   -0.539198    0.854628
      4          6           0       -1.653796    0.558795    0.957058
      5          6           0       -0.309567    0.352695    1.121614
      6          6           0        0.700444    1.406112    1.315978
      7          6           0        1.116965    1.907643    0.116868
      8          6           0        2.376210    1.417526   -0.350958
      9          6           0        2.675587    0.080825   -0.081634
     10          6           0        3.985156   -0.370233   -0.506167
     11          6           0        4.364994   -1.670746   -0.507194
     12          6           0        3.443631   -2.687872   -0.104324
     13          6           0        2.194694   -2.346895    0.298727
     14          6           0        1.723014   -0.982288    0.406587
     15          6           0        0.390386   -0.866954    0.820848
     16         16           0       -0.034869    2.734435   -0.943317
     17          7           0       -1.524012    2.774197   -0.179619
     18          6           0       -2.099010    1.890129    0.575853
     19          1           0       -4.386997   -2.392922   -1.930240
     20          1           0       -3.398091   -0.065319   -1.145145
     21          1           0       -2.117676   -1.291748   -1.101613
     22          1           0       -2.355664   -1.424245    1.405434
     23          1           0       -3.610118   -0.197065    1.342903
     24          1           0        1.509166    1.101346    1.976986
     25          1           0        3.048070    1.979943   -0.996443
     26          1           0        4.680469    0.397070   -0.830592
     27          1           0        5.364608   -1.947601   -0.825395
     28          1           0        3.748501   -3.728373   -0.120853
     29          1           0        1.502992   -3.124883    0.606098
     30          1           0       -0.185789   -1.789217    0.779969
     31          1           0       -3.148757    2.130053    0.779942
 ---------------------------------------------------------------------

 SCF Done:  E(RB3LYP) =  -1430.43070214     A.U. after    1 cycles
