 Gaussian 16, Revision A.03,
 Gaussian 16:  ES64L-G16RevA.03 25-Dec-2016

 -----------------------------
 # opt freq b3lyp/6-31g(2df,p)
 -----------------------------

 -------------------
 Title Card Required
 -------------------
 Symbolic Z-matrix:
 Charge =  0 Multiplicity = 1

 SCF Done:  E(RB3LYP) =  -1734.61722368     A.U. after   30 cycles
 SCF Done:  E(RB3LYP) =  -1734.73656538     A.U. after   23 cycles
 SCF Done:  E(RB3LYP) =  -1734.85620415     A.U. after   21 cycles
 SCF Done:  E(RB3LYP) =  -1734.97694870     A.U. after   21 cycles
 SCF Done:  E(RB3LYP) =  -1735.03514153     A.U. after   18 cycles
 SCF Done:  E(RB3LYP) =  -1735.06751768     A.U. after   17 cycles
 SCF Done:  E(RB3LYP) =  -1735.08766544     A.U. after   17 cycles
 SCF Done:  E(RB3LYP) =  -1735.09555309     A.U. after   17 cycles
 SCF Done:  E(RB3LYP) =  -1735.10232659     A.U. after   17 cycles
 SCF Done:  E(RB3LYP) =  -1735.10675920     A.U. after   17 cycles
 SCF Done:  E(RB3LYP) =  -1735.16520596     A.U. after   12 cycles
 SCF Done:  E(RB3LYP) =  -1735.16523702     A.U. after   11 cycles
 SCF Done:  E(RB3LYP) =  -1735.16525345     A.U. after    9 cycles
 SCF Done:  E(RB3LYP) =  -1735.16526069     A.U. after    9 cycles
 SCF Done:  E(RB3LYP) =  -1735.16526544     A.U. after   10 cycles
 SCF Done:  E(RB3LYP) =  -1735.16526613     A.U. after    8 cycles
 SCF Done:  E(RB3LYP) =  -1735.16526643     A.U. after    8 cycles
 SCF Done:  E(RB3LYP) =  -1735.16526654     A.U. after    7 cycles
 SCF Done:  E(RB3LYP) =  -1735.16526656     A.U. after    7 cycles
 Optimization completed.
    -- Stationary point found.

 The electronic state is 1-A.
 Alpha  occ. eigenvalues --  -88.89862 -88.89693 -88.85965 -10.28289 -10.25819
 Alpha  occ. eigenvalues --  -10.23677 -10.22005 -10.21579 -10.21470 -10.21373
 Alpha  occ. eigenvalues --  -10.21226 -10.21101 -10.21098 -10.20793 -10.20572
 Alpha  occ. eigenvalues --  -10.20153 -10.19948  -7.96221  -7.95817  -7.92462
 Alpha  occ. eigenvalues --   -5.92585  -5.92290  -5.92285  -5.91940  -5.91906
 Alpha  occ. eigenvalues --   -5.91427  -5.88810  -5.88669  -5.88011  -0.89565
 Alpha  occ. eigenvalues --   -0.86720  -0.83709  -0.81748  -0.80067  -0.77849
 Alpha  occ. eigenvalues --   -0.74389  -0.72835  -0.70321  -0.67446  -0.63891
 Alpha  occ. eigenvalues --   -0.59687  -0.58822  -0.57479  -0.55986  -0.53670
 Alpha  occ. eigenvalues --   -0.51835  -0.50555  -0.48999  -0.47346  -0.46487
 Alpha  occ. eigenvalues --   -0.45670  -0.43769  -0.42994  -0.41402  -0.40621
 Alpha  occ. eigenvalues --   -0.39694  -0.39050  -0.38536  -0.37471  -0.37062
 Alpha  occ. eigenvalues --   -0.36000  -0.34576  -0.33725  -0.32993  -0.32616
 Alpha  occ. eigenvalues --   -0.30212  -0.27139  -0.25755  -0.25010  -0.24581
 Alpha  occ. eigenvalues --   -0.22323  -0.20136
 Alpha virt. eigenvalues --   -0.08363  -0.07230  -0.06677  -0.03339  -0.01974
 Alpha virt. eigenvalues --    0.02618   0.04424   0.05849   0.07110   0.07760
 Alpha virt. eigenvalues --    0.08502   0.08941   0.10733   0.11574   0.11758

 Mulliken charges:
               1
     1  S   -0.124513
     2  C    0.238652
     3  C   -0.120979
     4  C   -0.070323
     5  C   -0.055812
     6  C   -0.080923
     7  C   -0.101013
     8  C   -0.154229
     9  C    0.150276
    10  C   -0.146522
    11  C   -0.065771
    12  C   -0.066398
    13  C   -0.121187
    14  C   -0.083849
    15  C   -0.114943
    16  S   -0.130986
    17  S   -0.284438
    18  H    0.144300
    19  H    0.111736
    20  H    0.092274
    21  H    0.092840
    22  H    0.093401
    23  H    0.105762
    24  H    0.122010
    25  H    0.098456
    26  H    0.103943
    27  H    0.109522
    28  H    0.130155
    29  H    0.128558
 Sum of Mulliken charges =  -0.00000

 Dipole moment (field-independent basis, Debye):
    X=             -5.1215    Y=              1.6421    Z=             -1.9169  Tot=              5.7097
 Quadrupole moment (field-independent basis, Debye-Ang):
   XX=           -143.7129   YY=           -118.5759   ZZ=           -117.9741
   XY=            -12.9708   XZ=             -5.5292   YZ=             -4.3220

 Normal termination of Gaussian 16 at Tue May 16 23:00:29 2023.

 ----------------------------------------------------------------------
 #N Geom=AllCheck Guess=TCheck SCRF=Check GenChk RB3LYP/6-31G(2df,p) Fr
 eq
 ----------------------------------------------------------------------

 Structure from the checkpoint file:  "SdC1CdCCdCCdCC2dCCdCCdCCdS2S1.chk"
 -------------------
 Title Card Required
 -------------------
 Charge =  0 Multiplicity = 1

                         Standard orientation:
 ---------------------------------------------------------------------
 Center     Atomic      Atomic             Coordinates (Angstroms)
 Number     Number       Type             X           Y           Z
 ---------------------------------------------------------------------
      1         16           0        5.837200   -0.683838   -1.168525
      2          6           0        5.622398    0.373902    0.178464
      3          6           0        4.327508    0.371405   -0.505544
      4          6           0        3.168861   -0.335274    0.015711
      5          6           0        1.905031   -0.057220   -0.372943
      6          6           0        0.730366   -0.700632    0.140532
      7          6           0       -0.530535   -0.400438   -0.257967
      8          6           0       -1.711833   -1.036546    0.253342
      9          6           0       -2.978417   -0.774557   -0.153255
     10          6           0       -3.305087    0.105163   -1.296644
     11          6           0       -4.094372    1.192313   -1.495768
     12          6           0       -4.890385    2.106238   -0.664842
     13          6           0       -5.347633    1.962011    0.600239
     14          6           0       -5.121063    0.682583    1.244768
     15          6           0       -5.455158   -0.446234    0.592879
     16         16           0       -4.308175   -1.773775    0.563716
     17         16           0        6.378491    0.980133    1.464362
     18          1           0        4.127140    1.210938   -1.167718
     19          1           0        3.358787   -1.105734    0.758386
     20          1           0        1.748503    0.715519   -1.125313
     21          1           0        0.877134   -1.473278    0.893552
     22          1           0       -0.666072    0.379774   -1.004171
     23          1           0       -1.568965   -1.777244    1.036590
     24          1           0       -2.772692   -0.209156   -2.194525
     25          1           0       -4.057027    1.545813   -2.525439
     26          1           0       -5.060793    3.067806   -1.147448
     27          1           0       -5.756021    2.819062    1.129321
     28          1           0       -4.463222    0.641135    2.111428
     29          1           0       -6.205116   -0.431223   -0.191346
 ---------------------------------------------------------------------

 SCF Done:  E(RB3LYP) =  -1735.16526656     A.U. after    1 cycles
