 Gaussian 16, Revision A.03,
 Gaussian 16:  ES64L-G16RevA.03 25-Dec-2016

 -----------------------------
 # opt freq b3lyp/6-31g(2df,p)
 -----------------------------

 -------------------
 Title Card Required
 -------------------
 Symbolic Z-matrix:
 Charge =  0 Multiplicity = 1

 SCF Done:  E(RB3LYP) =  -1219.74202155     A.U. after   29 cycles
 SCF Done:  E(RB3LYP) =  -1219.82487637     A.U. after   20 cycles
 SCF Done:  E(RB3LYP) =  -1219.92184515     A.U. after   18 cycles
 SCF Done:  E(RB3LYP) =  -1220.00179609     A.U. after   18 cycles
 SCF Done:  E(RB3LYP) =  -1220.08373485     A.U. after   16 cycles
 SCF Done:  E(RB3LYP) =  -1220.11612071     A.U. after   15 cycles
 SCF Done:  E(RB3LYP) =  -1220.13680130     A.U. after   15 cycles
 SCF Done:  E(RB3LYP) =  -1220.14291646     A.U. after   15 cycles
 SCF Done:  E(RB3LYP) =  -1220.14449632     A.U. after   15 cycles
 SCF Done:  E(RB3LYP) =  -1220.14481598     A.U. after   15 cycles
 SCF Done:  E(RB3LYP) =  -1220.14554425     A.U. after   14 cycles
 SCF Done:  E(RB3LYP) =  -1220.14560774     A.U. after   13 cycles
 SCF Done:  E(RB3LYP) =  -1220.14564994     A.U. after   12 cycles
 SCF Done:  E(RB3LYP) =  -1220.14565929     A.U. after   11 cycles
 SCF Done:  E(RB3LYP) =  -1220.14566400     A.U. after   11 cycles
 SCF Done:  E(RB3LYP) =  -1220.14566545     A.U. after   10 cycles
 SCF Done:  E(RB3LYP) =  -1220.14566587     A.U. after   10 cycles
 Optimization completed.
    -- Stationary point found.
 Normal termination of Gaussian 16 at Sat May 20 03:16:07 2023.

 ----------------------------------------------------------------------
 #N Geom=AllCheck Guess=TCheck SCRF=Check GenChk RB3LYP/6-31G(2df,p) Fr
 eq
 ----------------------------------------------------------------------

 Structure from the checkpoint file:  "SdC1C2dCCdCSC1dCCdCCdC2.chk"
 -------------------
 Title Card Required
 -------------------
 Charge =  0 Multiplicity = 1

                         Standard orientation:
 ---------------------------------------------------------------------
 Center     Atomic      Atomic             Coordinates (Angstroms)
 Number     Number       Type             X           Y           Z
 ---------------------------------------------------------------------
      1         16           0       -0.048258    0.482988    2.339795
      2          6           0       -0.073092    0.296624    0.719362
      3          6           0       -0.389946    1.397479   -0.248579
      4          6           0        0.547382    1.838342   -1.103869
      5          6           0        1.925951    1.368516   -1.175259
      6          6           0        2.536515    0.247323   -0.733157
      7         16           0        2.013532   -1.255011    0.042279
      8          6           0        0.248018   -1.052665    0.112513
      9          6           0       -0.580334   -1.998644   -0.401184
     10          6           0       -1.933897   -1.672242   -0.867927
     11          6           0       -2.698834   -0.700168   -0.274885
     12          6           0       -2.473159    0.549455   -0.968182
     13          6           0       -1.886062    1.516799   -0.170364
     14          1           0        0.277416    2.632390   -1.794761
     15          1           0        2.599784    2.059784   -1.677887
     16          1           0        3.611951    0.172238   -0.869048
     17          1           0       -0.109076   -2.893224   -0.799690
     18          1           0       -1.974956   -1.741786   -1.958787
     19          1           0       -2.779843   -0.654221    0.806660
     20          1           0       -2.172246    0.470267   -2.009503
     21          1           0       -2.232673    1.561993    0.859008
 ---------------------------------------------------------------------

 SCF Done:  E(RB3LYP) =  -1220.14566587     A.U. after    1 cycles

 The electronic state is 1-A.
 Alpha  occ. eigenvalues --  -88.90853 -88.86602 -10.27588 -10.25003 -10.23535
 Alpha  occ. eigenvalues --  -10.22620 -10.22573 -10.22338 -10.22336 -10.21723
 Alpha  occ. eigenvalues --  -10.20223 -10.19901 -10.19735  -7.96951  -7.93096
 Alpha  occ. eigenvalues --   -5.93424  -5.93063  -5.92568  -5.89404  -5.89368
 Alpha  occ. eigenvalues --   -5.88624  -0.89356  -0.84606  -0.82810  -0.80365
 Alpha  occ. eigenvalues --   -0.76378  -0.74284  -0.68626  -0.65925  -0.63505
 Alpha  occ. eigenvalues --   -0.58688  -0.56969  -0.53233  -0.51735  -0.49604
 Alpha  occ. eigenvalues --   -0.47631  -0.47086  -0.43783  -0.42765  -0.41834
 Alpha  occ. eigenvalues --   -0.40711  -0.40195  -0.38878  -0.36718  -0.36232
 Alpha  occ. eigenvalues --   -0.34849  -0.32014  -0.30265  -0.29185  -0.26781
 Alpha  occ. eigenvalues --   -0.23162  -0.22452  -0.18091
 Alpha virt. eigenvalues --   -0.10197  -0.07314  -0.04781  -0.02410  -0.00613
 Alpha virt. eigenvalues --    0.03296   0.06554   0.08182   0.08855   0.09753
 Alpha virt. eigenvalues --    0.10061   0.13259   0.14027   0.15034   0.15654

 Mulliken charges:
               1
     1  S   -0.272562
     2  C    0.117805
     3  C    0.231591
     4  C   -0.206931
     5  C   -0.072379
     6  C   -0.157576
     7  S   -0.071274
     8  C    0.194529
     9  C   -0.173623
    10  C   -0.113676
    11  C   -0.125652
    12  C   -0.038297
    13  C   -0.284689
    14  H    0.104013
    15  H    0.106528
    16  H    0.131283
    17  H    0.123969
    18  H    0.121810
    19  H    0.136876
    20  H    0.121674
    21  H    0.126581
 Sum of Mulliken charges =  -0.00000

 Dipole moment (field-independent basis, Debye):
    X=             -0.2319    Y=             -0.5357    Z=             -2.8062  Tot=              2.8662
 Quadrupole moment (field-independent basis, Debye-Ang):
   XX=            -85.0166   YY=            -89.9512   ZZ=            -90.4215
   XY=              2.9525   XZ=             -1.9053   YZ=             -1.0971

  Exact polarizability: 179.606  -0.029 157.484   1.743   3.299 138.486
 Approx polarizability: 342.362 -14.688 365.067  11.796  25.310 273.337

                      1                      2                      3
                      A                      A                      A
 Frequencies --     64.9167                89.2959               158.9819
 Red. masses --      5.1547                11.0193                 6.4062
 Frc consts  --      0.0128                 0.0518                 0.0954
 IR Inten    --      1.3368                 0.9102                 2.0284

                      4                      5                      6
                      A                      A                      A
 Frequencies --    195.5012               222.3453               228.0655
 Red. masses --     12.4158                 4.6828                 4.8837
 Frc consts  --      0.2796                 0.1364                 0.1497
 IR Inten    --      0.2208                 0.5431                 5.1947

                      7                      8                      9
                      A                      A                      A
 Frequencies --    271.4113               295.8008               321.5265
 Red. masses --      3.6446                 5.3113                 6.6574
 Frc consts  --      0.1582                 0.2738                 0.4055
 IR Inten    --      0.5726                 4.1809                 0.9692

                     10                     11                     12
                      A                      A                      A
 Frequencies --    388.2916               395.6213               432.4378
 Red. masses --      4.1168                 3.2671                 5.2942
 Frc consts  --      0.3657                 0.3013                 0.5833
 IR Inten    --     32.3958                 4.2964                 9.1671

                     13                     14                     15
                      A                      A                      A
 Frequencies --    494.3105               507.2620               566.8944
 Red. masses --      6.1118                 3.5724                 4.1486
 Frc consts  --      0.8799                 0.5416                 0.7855
 IR Inten    --      3.5827                 3.5784                 4.6929

                     16                     17                     18
                      A                      A                      A
 Frequencies --    606.8662               625.0109               641.9721
 Red. masses --      4.5439                 5.8320                 6.9017
 Frc consts  --      0.9860                 1.3423                 1.6759
 IR Inten    --     15.2448                11.7882                 1.6478

                     19                     20                     21
                      A                      A                      A
 Frequencies --    670.5487               703.0782               711.7353
 Red. masses --      5.1995                 5.5269                 1.3427
 Frc consts  --      1.3774                 1.6097                 0.4007
 IR Inten    --     10.9743                 6.2536                36.8554

                     22                     23                     24
                      A                      A                      A
 Frequencies --    753.7949               784.3819               832.7931
 Red. masses --      1.6652                 4.0608                 1.4642
 Frc consts  --      0.5575                 1.4720                 0.5983
 IR Inten    --    199.8046                28.2498                52.7749

                     25                     26                     27
                      A                      A                      A
 Frequencies --    870.2920               886.5877               896.9217
 Red. masses --      2.0759                 2.2500                 1.6013
 Frc consts  --      0.9264                 1.0420                 0.7590
 IR Inten    --      2.0301                21.2788                 6.5608

                     28                     29                     30
                      A                      A                      A
 Frequencies --    953.8336               959.3507               969.3398
 Red. masses --      1.7927                 1.8238                 1.7498
 Frc consts  --      0.9609                 0.9890                 0.9687
 IR Inten    --     26.0581                16.2430                34.1485

                     31                     32                     33
                      A                      A                      A
 Frequencies --   1009.6002              1026.6910              1056.3146
 Red. masses --      1.8227                 2.0297                 2.9178
 Frc consts  --      1.0946                 1.2606                 1.9182
 IR Inten    --     44.4036                27.7355                 7.4930

                     34                     35                     36
                      A                      A                      A
 Frequencies --   1088.5051              1146.2017              1163.5430
 Red. masses --      3.6813                 2.4493                 6.4063
 Frc consts  --      2.5699                 1.8959                 5.1100
 IR Inten    --     11.8336                25.3854                99.9785

                     37                     38                     39
                      A                      A                      A
 Frequencies --   1228.0870              1273.0120              1306.8885
 Red. masses --      1.1715                 1.0800                 1.7659
 Frc consts  --      1.0410                 1.0312                 1.7770
 IR Inten    --      6.0556                 1.1180                 5.4282

                     40                     41                     42
                      A                      A                      A
 Frequencies --   1318.3860              1323.8300              1338.6949
 Red. masses --      1.3872                 1.5077                 1.3527
 Frc consts  --      1.4206                 1.5568                 1.4283
 IR Inten    --      4.6691                 9.6452                11.3217

                     43                     44                     45
                      A                      A                      A
 Frequencies --   1355.5107              1393.8568              1458.2781
 Red. masses --      1.3167                 1.4059                 2.1871
 Frc consts  --      1.4254                 1.6093                 2.7404
 IR Inten    --      0.9245                 6.6861                52.2196

                     46                     47                     48
                      A                      A                      A
 Frequencies --   1521.7727              1563.2868              1609.4151
 Red. masses --      4.1110                 6.8716                 7.6229
 Frc consts  --      5.6092                 9.8942                11.6334
 IR Inten    --     32.1509                10.8382                19.8182

                     49                     50                     51
                      A                      A                      A
 Frequencies --   1669.8091              3070.5477              3136.0606
 Red. masses --      6.6882                 1.0832                 1.0830
 Frc consts  --     10.9874                 6.0170                 6.2755
 IR Inten    --     22.8434                14.1866                 9.9253

                     52                     53                     54
                      A                      A                      A
 Frequencies --   3143.3162              3155.3920              3159.9072
 Red. masses --      1.0846                 1.0874                 1.0874
 Frc consts  --      6.3138                 6.3791                 6.3974
 IR Inten    --      6.9941                10.7131                 6.5422

                     55                     56                     57
                      A                      A                      A
 Frequencies --   3164.0836              3170.8376              3174.6654
 Red. masses --      1.0881                 1.0912                 1.0890
 Frc consts  --      6.4184                 6.4639                 6.4665
 IR Inten    --      6.0660                10.3022                 8.1252

 - Thermochemistry -
 -------------------
 Temperature   298.150 Kelvin.  Pressure   1.00000 Atm.
 Atom     1 has atomic number 16 and mass  31.97207

 Molecular mass:   204.00674 amu.
 Principal axes and moments of inertia in atomic units:
                           1         2         3
     Eigenvalues --  2012.144172897.891023055.57794
           X            0.99946   0.02971  -0.01437
           Y           -0.03057   0.99746  -0.06434
           Z            0.01242   0.06475   0.99782
 This molecule is an asymmetric top.
 Rotational symmetry number  1.
 Warning -- assumption of classical behavior for rotation
           may cause significant error
 Rotational temperatures (Kelvin)      0.04305     0.02989     0.02835
 Rotational constants (GHZ):           0.89692     0.62278     0.59064
 Zero-point vibrational energy     397911.8 (Joules/Mol)
                                   95.10321 (Kcal/Mol)
 Warning -- explicit consideration of  16 degrees of freedom as
           vibrations may cause significant error
 Vibrational temperatures:     93.40   128.48   228.74   281.28   319.91
          (Kelvin)            328.14   390.50   425.59   462.60   558.67
                              569.21   622.18   711.20   729.84   815.63
                              873.15   899.25   923.65   964.77  1011.57
                             1024.03  1084.54  1128.55  1198.20  1252.16
                             1275.60  1290.47  1372.35  1380.29  1394.66
                             1452.59  1477.18  1519.80  1566.12  1649.13
                             1674.08  1766.94  1831.58  1880.32  1896.86
                             1904.70  1926.08  1950.28  2005.45  2098.14
                             2189.49  2249.22  2315.59  2402.48  4417.83
                             4512.09  4522.53  4539.91  4546.40  4552.41
                             4562.13  4567.64

 Zero-point correction=                           0.151557 (Hartree/Particle)
 Thermal correction to Energy=                    0.162606
 Thermal correction to Enthalpy=                  0.163550
 Thermal correction to Gibbs Free Energy=         0.114661
 Sum of electronic and zero-point Energies=          -1219.994109
 Sum of electronic and thermal Energies=             -1219.983060
 Sum of electronic and thermal Enthalpies=           -1219.982116
 Sum of electronic and thermal Free Energies=        -1220.031005

                     E (Thermal)             CV                S
                      KCal/Mol        Cal/Mol-Kelvin    Cal/Mol-Kelvin
 Total                  102.037             43.778            102.896
 Electronic               0.000              0.000              0.000
 Translational            0.889              2.981             41.843
 Rotational               0.889              2.981             31.255
 Vibrational            100.259             37.816             29.798
 Vibration     1          0.597              1.971              4.302
 Vibration     2          0.602              1.957              3.675
 Vibration     3          0.621              1.893              2.562
 Vibration     4          0.636              1.846              2.175
 Vibration     5          0.648              1.807              1.940
 Vibration     6          0.651              1.798              1.894
 Vibration     7          0.675              1.726              1.587
 Vibration     8          0.690              1.682              1.441
 Vibration     9          0.707              1.632              1.302
 Vibration    10          0.756              1.495              1.007
 Vibration    11          0.762              1.480              0.979
 Vibration    12          0.793              1.400              0.851
 Vibration    13          0.850              1.263              0.673
 Vibration    14          0.862              1.234              0.640
 Vibration    15          0.923              1.103              0.510
 Vibration    16          0.966              1.017              0.438

 Optimization completed.
    -- Stationary point found.
 Normal termination of Gaussian 16 at Sat May 20 04:32:28 2023.
