 Gaussian 16, Revision A.03,
 Gaussian 16:  ES64L-G16RevA.03 25-Dec-2016

 -----------------------------
 # opt freq b3lyp/6-31g(2df,p)
 -----------------------------

 -------------------
 Title Card Required
 -------------------
 Symbolic Z-matrix:
 Charge =  0 Multiplicity = 1

 SCF Done:  E(RB3LYP) =  -1197.81791702     A.U. after   23 cycles
 SCF Done:  E(RB3LYP) =  -1197.90541885     A.U. after   18 cycles
 SCF Done:  E(RB3LYP) =  -1197.97539021     A.U. after   17 cycles
 SCF Done:  E(RB3LYP) =  -1198.03178974     A.U. after   16 cycles
 SCF Done:  E(RB3LYP) =  -1198.07326202     A.U. after   15 cycles
 SCF Done:  E(RB3LYP) =  -1198.09318419     A.U. after   15 cycles
 SCF Done:  E(RB3LYP) =  -1198.10417382     A.U. after   15 cycles
 SCF Done:  E(RB3LYP) =  -1198.10388164     A.U. after   14 cycles
 SCF Done:  E(RB3LYP) =  -1198.10700258     A.U. after   15 cycles
 SCF Done:  E(RB3LYP) =  -1198.11058337     A.U. after   14 cycles
 SCF Done:  E(RB3LYP) =  -1198.15350288     A.U. after   11 cycles
 SCF Done:  E(RB3LYP) =  -1198.15392237     A.U. after   12 cycles
 SCF Done:  E(RB3LYP) =  -1198.15422606     A.U. after   12 cycles
 SCF Done:  E(RB3LYP) =  -1198.15444567     A.U. after   12 cycles
 SCF Done:  E(RB3LYP) =  -1198.15449842     A.U. after   11 cycles
 SCF Done:  E(RB3LYP) =  -1198.15452119     A.U. after   10 cycles
 SCF Done:  E(RB3LYP) =  -1198.15452481     A.U. after    9 cycles
 SCF Done:  E(RB3LYP) =  -1198.15452532     A.U. after    8 cycles
 SCF Done:  E(RB3LYP) =  -1198.15452551     A.U. after    7 cycles
 Optimization completed.
    -- Stationary point found.
 Normal termination of Gaussian 16 at Tue May 16 04:40:05 2023.

 ----------------------------------------------------------------------
 #N Geom=AllCheck Guess=TCheck SCRF=Check GenChk RB3LYP/6-31G(2df,p) Fr
 eq
 ----------------------------------------------------------------------

 Structure from the checkpoint file:  "SdC1CdCdCCdCCdNCdCS1.chk"
 -------------------
 Title Card Required
 -------------------
 Charge =  0 Multiplicity = 1

                         Standard orientation:
 ---------------------------------------------------------------------
 Center     Atomic      Atomic             Coordinates (Angstroms)
 Number     Number       Type             X           Y           Z
 ---------------------------------------------------------------------
      1         16           0       -1.499256    2.190386    0.720774
      2          6           0       -1.103277    0.884470   -0.189892
      3          6           0        0.044210    0.837926   -1.108585
      4          6           0        1.217911    1.381405   -0.860438
      5          6           0        2.496978    1.547199   -0.583520
      6          6           0        3.060070    0.304703   -0.008581
      7          6           0        2.269580   -0.327201    0.894481
      8          6           0        1.766497   -1.664911    0.646074
      9          7           0        0.482088   -1.684590    0.699010
     10          6           0       -0.310699   -2.513546   -0.051535
     11          6           0       -1.478243   -2.042548   -0.538311
     12         16           0       -2.241340   -0.489538   -0.138489
     13          1           0       -0.077917    0.252102   -2.019560
     14          1           0        3.076947    2.417572   -0.874374
     15          1           0        3.833469   -0.212971   -0.574489
     16          1           0        1.548604    0.281867    1.430987
     17          1           0        2.379747   -2.427758    0.148310
     18          1           0        0.030974   -3.512317   -0.341074
     19          1           0       -2.095070   -2.664912   -1.177604
 ---------------------------------------------------------------------

 SCF Done:  E(RB3LYP) =  -1198.15452551     A.U. after    2 cycles

 The electronic state is 1-A.
 Alpha  occ. eigenvalues --  -88.90204 -88.84725 -14.34185 -10.28065 -10.25586
 Alpha  occ. eigenvalues --  -10.23620 -10.23127 -10.22595 -10.22327 -10.22254
 Alpha  occ. eigenvalues --  -10.22078 -10.20852  -7.96304  -7.91261  -5.92781
 Alpha  occ. eigenvalues --   -5.92355  -5.91966  -5.87600  -5.87481  -5.86799
 Alpha  occ. eigenvalues --   -0.95246  -0.86033  -0.84535  -0.79322  -0.77654
 Alpha  occ. eigenvalues --   -0.71853  -0.70242  -0.65041  -0.58866  -0.57770
 Alpha  occ. eigenvalues --   -0.56441  -0.51638  -0.50429  -0.49296  -0.48430
 Alpha  occ. eigenvalues --   -0.46398  -0.43938  -0.42410  -0.40782  -0.39063
 Alpha  occ. eigenvalues --   -0.37622  -0.36099  -0.33704  -0.30842  -0.28561
 Alpha  occ. eigenvalues --   -0.27673  -0.26450  -0.24623  -0.22004  -0.21421
 Alpha virt. eigenvalues --   -0.08859  -0.06427  -0.03456   0.00205   0.01657
 Alpha virt. eigenvalues --    0.03270   0.05986   0.07864   0.10142   0.11181
 Alpha virt. eigenvalues --    0.11422   0.12950   0.13588   0.14082   0.16629

 Mulliken charges:
               1
     1  S   -0.305160
     2  C    0.220920
     3  C   -0.312029
     4  C    0.358457
     5  C   -0.275386
     6  C   -0.090453
     7  C   -0.096805
     8  C   -0.029355
     9  N   -0.139343
    10  C   -0.005119
    11  C   -0.158487
    12  S   -0.041973
    13  H    0.138776
    14  H    0.134486
    15  H    0.115903
    16  H    0.143223
    17  H    0.103698
    18  H    0.105070
    19  H    0.133580
 Sum of Mulliken charges =   0.00000

 Dipole moment (field-independent basis, Debye):
    X=              3.8940    Y=             -3.1677    Z=             -2.6841  Tot=              5.6923
 Quadrupole moment (field-independent basis, Debye-Ang):
   XX=            -79.3053   YY=            -79.1791   ZZ=            -83.4856
   XY=              3.9055   XZ=              0.6087   YZ=              0.6464

  Exact polarizability: 191.128   5.912 168.114  -2.526  10.484  90.681
 Approx polarizability: 368.641  31.558 311.025   0.396  24.931 176.970

                      1                      2                      3
                      A                      A                      A
 Frequencies --     56.8893               105.5192               133.2308
 Red. masses --     12.5823                 6.7852                 4.3693
 Frc consts  --      0.0240                 0.0445                 0.0457
 IR Inten    --      0.5928                 0.6066                 1.9736

                      4                      5                      6
                      A                      A                      A
 Frequencies --    149.1406               204.7993               216.2464
 Red. masses --      7.1516                 4.5315                 4.1700
 Frc consts  --      0.0937                 0.1120                 0.1149
 IR Inten    --      1.4474                 3.1142                10.2717

                      7                      8                      9
                      A                      A                      A
 Frequencies --    256.4507               282.6299               322.2878
 Red. masses --      3.8451                 4.7430                 3.3497
 Frc consts  --      0.1490                 0.2232                 0.2050
 IR Inten    --      0.8017                 3.7628                 1.3366

                     10                     11                     12
                      A                      A                      A
 Frequencies --    335.0554               361.1111               423.6678
 Red. masses --      3.9571                 5.5322                 4.6300
 Frc consts  --      0.2617                 0.4250                 0.4896
 IR Inten    --      4.9061                 6.9013                13.1470

                     13                     14                     15
                      A                      A                      A
 Frequencies --    472.4611               492.0594               522.5035
 Red. masses --      4.3893                 3.0890                 4.9818
 Frc consts  --      0.5773                 0.4407                 0.8013
 IR Inten    --      4.4604                 4.0633                18.2089

                     16                     17                     18
                      A                      A                      A
 Frequencies --    544.8176               646.5374               661.8014
 Red. masses --      5.0620                 6.0575                 3.9176
 Frc consts  --      0.8853                 1.4919                 1.0109
 IR Inten    --     10.0355                 2.8656                 1.5382

                     19                     20                     21
                      A                      A                      A
 Frequencies --    725.2861               742.6935               775.8663
 Red. masses --      6.3261                 2.8942                 1.9244
 Frc consts  --      1.9607                 0.9406                 0.6825
 IR Inten    --     20.6873                 7.7718                13.2249

                     22                     23                     24
                      A                      A                      A
 Frequencies --    782.6178               820.0269               876.0342
 Red. masses --      1.7493                 1.9376                 1.4013
 Frc consts  --      0.6313                 0.7677                 0.6336
 IR Inten    --      7.2104                84.1577                40.3492

                     25                     26                     27
                      A                      A                      A
 Frequencies --    899.5807               929.2152               971.0698
 Red. masses --      4.7642                 1.3680                 1.5699
 Frc consts  --      2.2715                 0.6959                 0.8722
 IR Inten    --    111.4960                 8.4983                 9.2208

                     28                     29                     30
                      A                      A                      A
 Frequencies --   1011.6003              1050.3250              1077.3375
 Red. masses --      1.6019                 1.6134                 2.1334
 Frc consts  --      0.9658                 1.0487                 1.4589
 IR Inten    --     31.7159                40.4162                11.0160

                     31                     32                     33
                      A                      A                      A
 Frequencies --   1095.6238              1144.1507              1209.9779
 Red. masses --      1.9784                 2.9366                 1.7427
 Frc consts  --      1.3992                 2.2650                 1.5032
 IR Inten    --     22.1795                17.7646                50.8001

                     34                     35                     36
                      A                      A                      A
 Frequencies --   1220.4975              1255.8883              1274.6924
 Red. masses --      2.1113                 1.4979                 1.3230
 Frc consts  --      1.8530                 1.3920                 1.2665
 IR Inten    --     67.1005                12.9924                 6.7242

                     37                     38                     39
                      A                      A                      A
 Frequencies --   1324.3044              1336.6257              1376.7138
 Red. masses --      1.3313                 1.3071                 1.6667
 Frc consts  --      1.3757                 1.3759                 1.8613
 IR Inten    --      5.6213                 2.3531                13.3437

                     40                     41                     42
                      A                      A                      A
 Frequencies --   1383.6677              1573.8834              1618.6975
 Red. masses --      2.5774                 5.0381                 5.8536
 Frc consts  --      2.9074                 7.3530                 9.0365
 IR Inten    --     11.3889                 9.1496                22.8583

                     43                     44                     45
                      A                      A                      A
 Frequencies --   1634.2491              1947.9360              3030.7046
 Red. masses --      7.5901                10.4310                 1.0883
 Frc consts  --     11.9436                23.3199                 5.8898
 IR Inten    --     71.9398                61.2712                55.1517

                     46                     47                     48
                      A                      A                      A
 Frequencies --   3070.4907              3121.6448              3134.8729
 Red. masses --      1.0860                 1.0856                 1.0879
 Frc consts  --      6.0323                 6.2327                 6.2989
 IR Inten    --     42.4100                 1.5807                13.6925

                     49                     50                     51
                      A                      A                      A
 Frequencies --   3171.0761              3177.7512              3192.0621
 Red. masses --      1.0915                 1.0879                 1.0917
 Frc consts  --      6.4666                 6.4727                 6.5537
 IR Inten    --      6.6607                 3.8066                 8.6577

 - Thermochemistry -
 -------------------
 Temperature   298.150 Kelvin.  Pressure   1.00000 Atm.
 Atom     1 has atomic number 16 and mass  31.97207

 Molecular mass:   193.00199 amu.
 Principal axes and moments of inertia in atomic units:
                           1         2         3
     Eigenvalues --  1935.674562492.117413862.98517
           X            0.99916   0.04091   0.00028
           Y           -0.04091   0.99915   0.00525
           Z           -0.00006  -0.00526   0.99999
 This molecule is an asymmetric top.
 Rotational symmetry number  1.
 Warning -- assumption of classical behavior for rotation
           may cause significant error
 Rotational temperatures (Kelvin)      0.04475     0.03476     0.02242
 Rotational constants (GHZ):           0.93236     0.72418     0.46719
 Zero-point vibrational energy     347780.6 (Joules/Mol)
                                   83.12155 (Kcal/Mol)
 Warning -- explicit consideration of  16 degrees of freedom as
           vibrations may cause significant error
 Vibrational temperatures:     81.85   151.82   191.69   214.58   294.66
          (Kelvin)            311.13   368.98   406.64   463.70   482.07
                              519.56   609.56   679.77   707.96   751.77
                              783.87   930.22   952.18  1043.52  1068.57
                             1116.30  1126.01  1179.84  1260.42  1294.30
                             1336.93  1397.15  1455.47  1511.18  1550.05
                             1576.36  1646.18  1740.89  1756.02  1806.94
                             1834.00  1905.38  1923.11  1980.78  1990.79
                             2264.47  2328.94  2351.32  2802.65  4360.51
                             4417.75  4491.35  4510.38  4562.47  4572.08
                             4592.67

 Zero-point correction=                           0.132463 (Hartree/Particle)
 Thermal correction to Energy=                    0.143602
 Thermal correction to Enthalpy=                  0.144546
 Thermal correction to Gibbs Free Energy=         0.095186
 Sum of electronic and zero-point Energies=          -1198.022063
 Sum of electronic and thermal Energies=             -1198.010924
 Sum of electronic and thermal Enthalpies=           -1198.009979
 Sum of electronic and thermal Free Energies=        -1198.059340

                     E (Thermal)             CV                S
                      KCal/Mol        Cal/Mol-Kelvin    Cal/Mol-Kelvin
 Total                   90.112             42.118            103.888
 Electronic               0.000              0.000              0.000
 Translational            0.889              2.981             41.678
 Rotational               0.889              2.981             31.300
 Vibrational             88.334             36.156             30.910
 Vibration     1          0.596              1.975              4.562
 Vibration     2          0.605              1.945              3.350
 Vibration     3          0.613              1.920              2.899
 Vibration     4          0.618              1.904              2.683
 Vibration     5          0.640              1.833              2.090
 Vibration     6          0.645              1.816              1.990
 Vibration     7          0.666              1.752              1.686
 Vibration     8          0.682              1.706              1.518
 Vibration     9          0.707              1.631              1.298
 Vibration    10          0.716              1.605              1.236
 Vibration    11          0.735              1.552              1.117
 Vibration    12          0.786              1.419              0.880
 Vibration    13          0.829              1.311              0.731
 Vibration    14          0.848              1.268              0.678
 Vibration    15          0.877              1.200              0.604
 Vibration    16          0.900              1.151              0.555

 Optimization completed.
    -- Stationary point found.
 Normal termination of Gaussian 16 at Tue May 16 05:30:50 2023.
