 Gaussian 16, Revision A.03,
 Gaussian 16:  ES64L-G16RevA.03 25-Dec-2016

 -----------------------------
 # opt freq b3lyp/6-31g(2df,p)
 -----------------------------

 -------------------
 Title Card Required
 -------------------
 Symbolic Z-matrix:
 Charge =  0 Multiplicity = 1

 SCF Done:  E(RB3LYP) =  -1573.08930777     A.U. after   17 cycles
 SCF Done:  E(RB3LYP) =  -1573.11461245     A.U. after   15 cycles
 SCF Done:  E(RB3LYP) =  -1573.12187820     A.U. after   15 cycles
 SCF Done:  E(RB3LYP) =  -1573.12309812     A.U. after   13 cycles
 SCF Done:  E(RB3LYP) =  -1573.12340486     A.U. after   12 cycles
 SCF Done:  E(RB3LYP) =  -1573.12354226     A.U. after   13 cycles
 SCF Done:  E(RB3LYP) =  -1573.12354429     A.U. after   13 cycles
 SCF Done:  E(RB3LYP) =  -1573.12358051     A.U. after   12 cycles
 SCF Done:  E(RB3LYP) =  -1573.12358390     A.U. after   10 cycles
 SCF Done:  E(RB3LYP) =  -1573.12358622     A.U. after    9 cycles
 Optimization completed.
    -- Stationary point found.
 Normal termination of Gaussian 16 at Wed May 17 01:55:00 2023.

 ----------------------------------------------------------------------
 #N Geom=AllCheck Guess=TCheck SCRF=Check GenChk RB3LYP/6-31G(2df,p) Fr
 eq
 ----------------------------------------------------------------------

 Structure from the checkpoint file:  "SdC1CdNNdc2sccc2dCS1.chk"
 -------------------
 Title Card Required
 -------------------
 Charge =  0 Multiplicity = 1

                         Standard orientation:
 ---------------------------------------------------------------------
 Center     Atomic      Atomic             Coordinates (Angstroms)
 Number     Number       Type             X           Y           Z
 ---------------------------------------------------------------------
      1         16           0       -4.103955   -0.225013   -0.004915
      2          6           0       -2.481138   -0.300565    0.000239
      3          6           0       -1.623620   -1.466543    0.001102
      4          7           0       -0.412314   -1.056740    0.006489
      5          7           0        0.758425   -1.688317    0.004642
      6          6           0        1.608921   -0.666893    0.002007
      7         16           0        3.318688   -0.959070   -0.002645
      8          6           0        3.665751    0.773566   -0.003923
      9          6           0        2.557939    1.528139   -0.001393
     10          6           0        1.300887    0.782622    0.001048
     11          6           0        0.112336    1.478369    0.002626
     12         16           0       -1.638389    1.349842    0.002658
     13          1           0       -2.020447   -2.482057   -0.004620
     14          1           0        4.695738    1.096660   -0.006664
     15          1           0        2.577610    2.611334   -0.001896
     16          1           0        0.256362    2.565161    0.003467
 ---------------------------------------------------------------------

 SCF Done:  E(RB3LYP) =  -1573.12358622     A.U. after    1 cycles

 The electronic state is 1-A.
 Alpha  occ. eigenvalues --  -88.92596 -88.92186 -88.88008 -14.37119 -14.36686
 Alpha  occ. eigenvalues --  -10.29087 -10.28423 -10.26366 -10.24091 -10.23321
 Alpha  occ. eigenvalues --  -10.23281 -10.21619  -7.98819  -7.98200  -7.94535
 Alpha  occ. eigenvalues --   -5.95220  -5.94866  -5.94683  -5.94552  -5.94209
 Alpha  occ. eigenvalues --   -5.93897  -5.90820  -5.90807  -5.90073  -1.03312
 Alpha  occ. eigenvalues --   -0.90669  -0.87599  -0.82128  -0.80568  -0.75244
 Alpha  occ. eigenvalues --   -0.72666  -0.66687  -0.62896  -0.58973  -0.56339
 Alpha  occ. eigenvalues --   -0.54849  -0.50158  -0.48136  -0.45823  -0.45138
 Alpha  occ. eigenvalues --   -0.44870  -0.41329  -0.39750  -0.39134  -0.37096
 Alpha  occ. eigenvalues --   -0.36721  -0.35613  -0.33962  -0.32523  -0.28959
 Alpha  occ. eigenvalues --   -0.26393  -0.24733  -0.23421  -0.21519
 Alpha virt. eigenvalues --   -0.13387  -0.05214  -0.01154   0.00175   0.01195
 Alpha virt. eigenvalues --    0.02253   0.04262   0.08015   0.08587   0.08754
 Alpha virt. eigenvalues --    0.09537   0.11958   0.14862   0.15312   0.17083

 Mulliken charges:
               1
     1  S   -0.225634
     2  C    0.188491
     3  C   -0.091847
     4  N   -0.093862
     5  N   -0.310301
     6  C    0.238450
     7  S    0.001831
     8  C   -0.181420
     9  C   -0.126231
    10  C    0.259698
    11  C   -0.185566
    12  S   -0.005107
    13  H    0.134655
    14  H    0.143381
    15  H    0.123028
    16  H    0.130433
 Sum of Mulliken charges =  -0.00000

 Dipole moment (field-independent basis, Debye):
    X=              3.1648    Y=              1.8436    Z=             -0.0074  Tot=              3.6627
 Quadrupole moment (field-independent basis, Debye-Ang):
   XX=            -86.6203   YY=            -86.4094   ZZ=            -90.3456
   XY=              8.2921   XZ=             -0.0266   YZ=              0.0144

  Exact polarizability: 319.425   4.632 137.041   0.061   0.047  63.891
 Approx polarizability: 672.668  -8.223 264.408   0.272   0.094 116.191

                      1                      2                      3
                      A                      A                      A
 Frequencies --     22.0579               108.9060               160.0325
 Red. masses --     12.7124                 9.6787                 4.0580
 Frc consts  --      0.0036                 0.0676                 0.0612
 IR Inten    --      0.7701                 0.3403                 6.0605

                      4                      5                      6
                      A                      A                      A
 Frequencies --    186.0337               222.1542               242.4292
 Red. masses --     15.1779                 4.3087                 9.8625
 Frc consts  --      0.3095                 0.1253                 0.3415
 IR Inten    --      0.7031                 0.9457                 4.7042

                      7                      8                      9
                      A                      A                      A
 Frequencies --    292.1094               312.3720               319.9568
 Red. masses --      5.6747                18.9779                 4.0120
 Frc consts  --      0.2853                 1.0910                 0.2420
 IR Inten    --      0.0023                 1.3218                 0.0785

                     10                     11                     12
                      A                      A                      A
 Frequencies --    358.6158               448.9051               496.7092
 Red. masses --     12.8269                 9.7079                 4.5196
 Frc consts  --      0.9719                 1.1526                 0.6570
 IR Inten    --      3.4363                 4.0712                 0.7434

                     13                     14                     15
                      A                      A                      A
 Frequencies --    505.4279               545.2974               546.1542
 Red. masses --      6.5029                13.0928                 8.0212
 Frc consts  --      0.9788                 2.2938                 1.4097
 IR Inten    --     23.0108                18.8841                 0.3958

                     16                     17                     18
                      A                      A                      A
 Frequencies --    574.8191               640.9903               679.2404
 Red. masses --      8.9864                 8.9536                 1.7608
 Frc consts  --      1.7494                 2.1675                 0.4786
 IR Inten    --      4.2423                 3.2855                33.5965

                     19                     20                     21
                      A                      A                      A
 Frequencies --    711.3033               760.2781               807.5294
 Red. masses --      8.6491                 2.6124                 4.3707
 Frc consts  --      2.5783                 0.8897                 1.6793
 IR Inten    --     23.5229                 6.2409                 8.2278

                     22                     23                     24
                      A                      A                      A
 Frequencies --    823.8857               873.6379               907.6271
 Red. masses --      6.7566                 1.4266                 1.4229
 Frc consts  --      2.7022                 0.6415                 0.6906
 IR Inten    --     34.3285                 0.7730                12.0227

                     25                     26                     27
                      A                      A                      A
 Frequencies --    922.8421               960.7827              1053.1535
 Red. masses --      1.3882                 5.2447                 5.1389
 Frc consts  --      0.6966                 2.8525                 3.3581
 IR Inten    --      8.5943                 6.9372                27.2155

                     28                     29                     30
                      A                      A                      A
 Frequencies --   1086.2991              1113.6307              1175.8434
 Red. masses --      5.3554                 1.4573                 1.9572
 Frc consts  --      3.7234                 1.0648                 1.5943
 IR Inten    --    513.3225               123.2157                 2.3388

                     31                     32                     33
                      A                      A                      A
 Frequencies --   1217.4812              1314.4307              1329.6391
 Red. masses --      2.7321                 2.5087                 1.8438
 Frc consts  --      2.3860                 2.5537                 1.9206
 IR Inten    --      7.4547               172.4645                33.5094

                     34                     35                     36
                      A                      A                      A
 Frequencies --   1379.1668              1430.9371              1535.9097
 Red. masses --      1.3643                 8.4212                 6.1804
 Frc consts  --      1.5290                10.1593                 8.5901
 IR Inten    --     22.6430                52.1294               359.5258

                     37                     38                     39
                      A                      A                      A
 Frequencies --   1607.2857              1660.9203              3058.1095
 Red. masses --      6.7769                10.2420                 1.0830
 Frc consts  --     10.3150                16.6468                 5.9673
 IR Inten    --     44.4092                85.9778                 9.2789

                     40                     41                     42
                      A                      A                      A
 Frequencies --   3119.9340              3203.8930              3256.6003
 Red. masses --      1.0924                 1.0899                 1.0986
 Frc consts  --      6.2647                 6.5919                 6.8649
 IR Inten    --      8.0804                 3.9905                 3.0885

 - Thermochemistry -
 -------------------
 Temperature   298.150 Kelvin.  Pressure   1.00000 Atm.
 Atom     1 has atomic number 16 and mass  31.97207

 Molecular mass:   211.95366 amu.
 Principal axes and moments of inertia in atomic units:
                           1         2         3
     Eigenvalues --   951.481555059.849896011.31315
           X            0.99989   0.01512  -0.00002
           Y           -0.01512   0.99989   0.00003
           Z            0.00002  -0.00003   1.00000
 This molecule is an asymmetric top.
 Rotational symmetry number  1.
 Warning -- assumption of classical behavior for rotation
           may cause significant error
 Rotational temperatures (Kelvin)      0.09103     0.01712     0.01441
 Rotational constants (GHZ):           1.89677     0.35668     0.30022
 Zero-point vibrational energy     251056.3 (Joules/Mol)
                                   60.00389 (Kcal/Mol)
 Warning -- explicit consideration of  16 degrees of freedom as
           vibrations may cause significant error
 Vibrational temperatures:     31.74   156.69   230.25   267.66   319.63
          (Kelvin)            348.80   420.28   449.43   460.35   515.97
                              645.87   714.65   727.20   784.56   785.79
                              827.04   922.24   977.28  1023.41  1093.87
                             1161.85  1185.39  1256.97  1305.87  1327.76
                             1382.35  1515.25  1562.94  1602.27  1691.78
                             1751.68  1891.17  1913.05  1984.31  2058.80
                             2209.83  2312.53  2389.69  4399.94  4488.89
                             4609.69  4685.52

 Zero-point correction=                           0.095622 (Hartree/Particle)
 Thermal correction to Energy=                    0.106124
 Thermal correction to Enthalpy=                  0.107068
 Thermal correction to Gibbs Free Energy=         0.057898
 Sum of electronic and zero-point Energies=          -1573.027964
 Sum of electronic and thermal Energies=             -1573.017462
 Sum of electronic and thermal Enthalpies=           -1573.016518
 Sum of electronic and thermal Free Energies=        -1573.065689

                     E (Thermal)             CV                S
                      KCal/Mol        Cal/Mol-Kelvin    Cal/Mol-Kelvin
 Total                   66.594             39.449            103.488
 Electronic               0.000              0.000              0.000
 Translational            0.889              2.981             41.957
 Rotational               0.889              2.981             31.737
 Vibrational             64.816             33.487             29.794
 Vibration     1          0.593              1.985              6.440
 Vibration     2          0.606              1.942              3.288
 Vibration     3          0.622              1.891              2.549
 Vibration     4          0.632              1.859              2.267
 Vibration     5          0.648              1.807              1.941
 Vibration     6          0.659              1.775              1.785
 Vibration     7          0.687              1.688              1.462
 Vibration     8          0.701              1.650              1.350
 Vibration     9          0.706              1.635              1.310
 Vibration    10          0.733              1.558              1.128
 Vibration    11          0.808              1.363              0.799
 Vibration    12          0.852              1.257              0.666
 Vibration    13          0.861              1.238              0.645
 Vibration    14          0.900              1.150              0.554
 Vibration    15          0.901              1.148              0.552
 Vibration    16          0.931              1.086              0.495

                           ! Non-Optimized Parameters !
 Normal termination of Gaussian 16 at Wed May 17 02:33:05 2023.
