 Gaussian 16, Revision A.03,
 Gaussian 16:  ES64L-G16RevA.03 25-Dec-2016

 -----------------------------
 # opt freq b3lyp/6-31g(2df,p)
 -----------------------------

 -------------------
 Title Card Required
 -------------------
 Symbolic Z-matrix:
 Charge =  0 Multiplicity = 1

 SCF Done:  E(RB3LYP) =  -3776.57672567     A.U. after   23 cycles
 SCF Done:  E(RB3LYP) =  -3776.61803049     A.U. after   15 cycles
 SCF Done:  E(RB3LYP) =  -3776.64664665     A.U. after   16 cycles
 SCF Done:  E(RB3LYP) =  -3776.65401288     A.U. after   16 cycles
 SCF Done:  E(RB3LYP) =  -3776.66211279     A.U. after   15 cycles
 SCF Done:  E(RB3LYP) =  -3776.65767157     A.U. after   18 cycles
 SCF Done:  E(RB3LYP) =  -3776.67518722     A.U. after   15 cycles
 SCF Done:  E(RB3LYP) =  -3776.68245521     A.U. after   16 cycles
 SCF Done:  E(RB3LYP) =  -3776.68495732     A.U. after   15 cycles
 SCF Done:  E(RB3LYP) =  -3776.68654012     A.U. after   15 cycles
 SCF Done:  E(RB3LYP) =  -3776.69216554     A.U. after   14 cycles
 SCF Done:  E(RB3LYP) =  -3776.69241625     A.U. after   13 cycles
 SCF Done:  E(RB3LYP) =  -3776.69249660     A.U. after   12 cycles
 SCF Done:  E(RB3LYP) =  -3776.69250774     A.U. after   13 cycles
 SCF Done:  E(RB3LYP) =  -3776.69253710     A.U. after   11 cycles
 SCF Done:  E(RB3LYP) =  -3776.69253717     A.U. after   10 cycles
 SCF Done:  E(RB3LYP) =  -3776.69254058     A.U. after    9 cycles
 SCF Done:  E(RB3LYP) =  -3776.69254093     A.U. after    8 cycles
 SCF Done:  E(RB3LYP) =  -3776.69254105     A.U. after    7 cycles
 Optimization completed.
    -- Stationary point found.
 Normal termination of Gaussian 16 at Wed May 17 12:16:38 2023.

 ----------------------------------------------------------------------
 #N Geom=AllCheck Guess=TCheck SCRF=Check GenChk RB3LYP/6-31G(2df,p) Fr
 eq
 ----------------------------------------------------------------------

 Structure from the checkpoint file:  "SdC1CdCSCqdSrC1SSSSSS.chk"
 -------------------
 Title Card Required
 -------------------
 Charge =  0 Multiplicity = 1

                         Standard orientation:
 ---------------------------------------------------------------------
 Center     Atomic      Atomic             Coordinates (Angstroms)
 Number     Number       Type             X           Y           Z
 ---------------------------------------------------------------------
      1         16           0        4.786805   -0.531366    0.997095
      2          6           0        3.517833    0.108773    0.166992
      3          6           0        3.666834    0.697309   -1.137707
      4          6           0        2.701186    1.391457   -1.778169
      5         16           0        1.132542    1.804456   -1.156651
      6          6           0        1.138320    1.097340    0.450019
      7         16           0        0.003167    1.566788    1.524973
      8          6           0        2.125689    0.020039    0.755975
      9         16           0        1.526827   -1.667336    0.036629
     10         16           0       -0.440487   -1.924638    0.536614
     11         16           0       -1.583522   -1.695157   -1.211107
     12         16           0       -2.373036    0.226373   -1.287485
     13         16           0       -4.265144    0.181694   -0.420160
     14         16           0       -4.071493    0.535740    1.618505
     15          1           0        4.639651    0.597930   -1.606098
     16          1           0        2.877537    1.817807   -2.760539
     17          1           0        2.173293   -0.135559    1.830860
     18          1           0       -4.040170    1.885466    1.578477
 ---------------------------------------------------------------------

 SCF Done:  E(RB3LYP) =  -3776.69254105     A.U. after    1 cycles

 The electronic state is 1-A.
 Alpha  occ. eigenvalues --  -88.94440 -88.93890 -88.93281 -88.93273 -88.93088
 Alpha  occ. eigenvalues --  -88.92669 -88.91223 -88.88177 -88.86936 -10.30222
 Alpha  occ. eigenvalues --  -10.27824 -10.26649 -10.26471 -10.22987  -8.00600
 Alpha  occ. eigenvalues --   -8.00013  -7.99475  -7.99466  -7.99340  -7.98867
 Alpha  occ. eigenvalues --   -7.97831  -7.94655  -7.93425  -5.97031  -5.96613
 Alpha  occ. eigenvalues --   -5.96482  -5.96335  -5.96133  -5.95969  -5.95942
 Alpha  occ. eigenvalues --   -5.95817  -5.95617  -5.95599  -5.95548  -5.95462
 Alpha  occ. eigenvalues --   -5.95372  -5.95005  -5.94988  -5.94924  -5.94836
 Alpha  occ. eigenvalues --   -5.94346  -5.94285  -5.93911  -5.93337  -5.90963
 Alpha  occ. eigenvalues --   -5.90921  -5.90186  -5.89733  -5.89716  -5.88933
 Alpha  occ. eigenvalues --   -0.91292  -0.85522  -0.84102  -0.83580  -0.81639
 Alpha  occ. eigenvalues --   -0.77982  -0.73866  -0.73313  -0.70181  -0.65205
 Alpha  occ. eigenvalues --   -0.63935  -0.59521  -0.58408  -0.52183  -0.50953
 Alpha  occ. eigenvalues --   -0.49116  -0.47114  -0.45917  -0.42895  -0.42485
 Alpha  occ. eigenvalues --   -0.41006  -0.39757  -0.39430  -0.39016  -0.38014
 Alpha  occ. eigenvalues --   -0.37483  -0.36874  -0.36525  -0.34363  -0.30503
 Alpha  occ. eigenvalues --   -0.30012  -0.29323  -0.28533  -0.26990  -0.26305
 Alpha  occ. eigenvalues --   -0.26143  -0.24992  -0.24457  -0.23597
 Alpha virt. eigenvalues --   -0.12848  -0.09411  -0.07918  -0.06668  -0.04362
 Alpha virt. eigenvalues --   -0.03498  -0.02685  -0.01009   0.00615   0.02336
 Alpha virt. eigenvalues --    0.04165   0.05148   0.05191   0.08700   0.10846

 Mulliken charges:
               1
     1  S   -0.295441
     2  C    0.239727
     3  C   -0.105184
     4  C   -0.120200
     5  S    0.043636
     6  C    0.196375
     7  S   -0.242603
     8  C   -0.189314
     9  S   -0.009420
    10  S   -0.001334
    11  S   -0.007450
    12  S   -0.007552
    13  S   -0.010124
    14  S   -0.154864
    15  H    0.143171
    16  H    0.156395
    17  H    0.180440
    18  H    0.183740
 Sum of Mulliken charges =  -0.00000

 Dipole moment (field-independent basis, Debye):
    X=             -0.1747    Y=              2.2450    Z=             -2.2236  Tot=              3.1646
 Quadrupole moment (field-independent basis, Debye-Ang):
   XX=           -150.8981   YY=           -143.4845   ZZ=           -140.6062
   XY=              2.6135   XZ=            -10.6568   YZ=             -1.9621

  Exact polarizability: 353.645 -36.412 187.992  -0.113  -4.708 203.429
 Approx polarizability: 627.286-110.798 385.732  10.842 -21.210 455.691

                      1                      2                      3
                      A                      A                      A
 Frequencies --     18.1168                21.0780                36.7788
 Red. masses --     16.7391                16.7228                13.2734
 Frc consts  --      0.0032                 0.0044                 0.0106
 IR Inten    --      0.2413                 0.1054                 0.4512

                      4                      5                      6
                      A                      A                      A
 Frequencies --     46.0036                56.4956                67.2166
 Red. masses --     20.3668                16.6886                22.1299
 Frc consts  --      0.0254                 0.0314                 0.0589
 IR Inten    --      0.3240                 1.0628                 0.8055

                      7                      8                      9
                      A                      A                      A
 Frequencies --     80.8126               102.4956               141.2421
 Red. masses --     22.1738                10.4069                15.3547
 Frc consts  --      0.0853                 0.0644                 0.1805
 IR Inten    --      0.1911                 1.2721                 0.3302

                     10                     11                     12
                      A                      A                      A
 Frequencies --    149.9906               177.2427               193.6899
 Red. masses --      9.2638                25.6203                19.6719
 Frc consts  --      0.1228                 0.4742                 0.4348
 IR Inten    --      1.3148                 0.4344                 2.0401

                     13                     14                     15
                      A                      A                      A
 Frequencies --    225.6665               228.4898               252.4528
 Red. masses --      9.2879                14.6855                15.3725
 Frc consts  --      0.2787                 0.4517                 0.5772
 IR Inten    --      1.1539                 2.5633                 1.1782

                     16                     17                     18
                      A                      A                      A
 Frequencies --    329.6313               330.7835               349.9137
 Red. masses --      2.8262                 1.9083                 7.8082
 Frc consts  --      0.1809                 0.1230                 0.5633
 IR Inten    --      2.4710                25.2580                 2.0647

                     19                     20                     21
                      A                      A                      A
 Frequencies --    354.6124               395.4218               406.7312
 Red. masses --      6.0917                20.6051                13.4966
 Frc consts  --      0.4513                 1.8982                 1.3155
 IR Inten    --      2.2391                 0.0288                 0.8596

                     22                     23                     24
                      A                      A                      A
 Frequencies --    436.0114               462.2509               468.5912
 Red. masses --     28.6906                23.3371                15.2039
 Frc consts  --      3.2136                 2.9380                 1.9669
 IR Inten    --      1.2895                 3.8750                12.1115

                     25                     26                     27
                      A                      A                      A
 Frequencies --    481.3666               501.7976               573.6237
 Red. masses --     31.6654                13.6880                 6.7689
 Frc consts  --      4.3230                 2.0307                 1.3123
 IR Inten    --     11.1150                10.8694                 2.5089

                     28                     29                     30
                      A                      A                      A
 Frequencies --    585.4858               682.5275               698.5374
 Red. masses --      8.4093                 5.1233                 4.3353
 Frc consts  --      1.6984                 1.4062                 1.2464
 IR Inten    --      2.3657                 4.2597                15.7442

                     31                     32                     33
                      A                      A                      A
 Frequencies --    735.1896               798.9285               865.8236
 Red. masses --      5.8241                 1.6934                 1.0580
 Frc consts  --      1.8547                 0.6368                 0.4673
 IR Inten    --     29.9980                14.6854                 4.8387

                     34                     35                     36
                      A                      A                      A
 Frequencies --    882.9341               977.7043              1014.1124
 Red. masses --      4.7485                 1.2713                 8.0290
 Frc consts  --      2.1810                 0.7160                 4.8650
 IR Inten    --      4.7860                 2.5412               119.5458

                     37                     38                     39
                      A                      A                      A
 Frequencies --   1122.9067              1135.2204              1173.2723
 Red. masses --      2.0395                 1.6302                 2.8585
 Frc consts  --      1.5152                 1.2378                 2.3184
 IR Inten    --     92.9558                 8.4609                33.8941

                     40                     41                     42
                      A                      A                      A
 Frequencies --   1210.1762              1271.1035              1329.7833
 Red. masses --      1.7517                 1.7756                 1.6469
 Frc consts  --      1.5115                 1.6902                 1.7159
 IR Inten    --     30.4234                12.1394                50.5574

                     43                     44                     45
                      A                      A                      A
 Frequencies --   1401.1663              1580.4503              2637.2773
 Red. masses --      1.8130                 6.6355                 1.0394
 Frc consts  --      2.0971                 9.7653                 4.2592
 IR Inten    --     26.1639               142.5732                 0.7930

                     46                     47                     48
                      A                      A                      A
 Frequencies --   3151.0920              3184.5652              3203.5074
 Red. masses --      1.0868                 1.0855                 1.0950
 Frc consts  --      6.3579                 6.4860                 6.6210
 IR Inten    --      2.3172                 1.3682                 0.1030

 - Thermochemistry -
 -------------------
 Temperature   298.150 Kelvin.  Pressure   1.00000 Atm.
 Atom     1 has atomic number 16 and mass  31.97207

 Molecular mass:   351.77995 amu.
 Principal axes and moments of inertia in atomic units:
                           1         2         3
     Eigenvalues --  3500.24538********************
           X            0.99997  -0.00017  -0.00758
           Y           -0.00002   0.99968  -0.02519
           Z            0.00758   0.02519   0.99965
 This molecule is an asymmetric top.
 Rotational symmetry number  1.
 Warning -- assumption of classical behavior for rotation
           may cause significant error
 Rotational temperatures (Kelvin)      0.02475     0.00765     0.00735
 Rotational constants (GHZ):           0.51560     0.15937     0.15322
 Zero-point vibrational energy     218499.5 (Joules/Mol)
                                   52.22264 (Kcal/Mol)
 Warning -- explicit consideration of  28 degrees of freedom as
           vibrations may cause significant error
 Vibrational temperatures:     26.07    30.33    52.92    66.19    81.28
          (Kelvin)             96.71   116.27   147.47   203.22   215.80
                              255.01   278.68   324.68   328.75   363.22
                              474.27   475.92   503.45   510.21   568.92
                              585.20   627.32   665.08   674.20   692.58
                              721.97   825.32   842.38   982.00  1005.04
                             1057.77  1149.48  1245.73  1270.35  1406.70
                             1459.08  1615.61  1633.33  1688.08  1741.17
                             1828.83  1913.26  2015.97  2273.92  3794.45
                             4533.72  4581.88  4609.13

 Zero-point correction=                           0.083222 (Hartree/Particle)
 Thermal correction to Energy=                    0.101078
 Thermal correction to Enthalpy=                  0.102022
 Thermal correction to Gibbs Free Energy=         0.032340
 Sum of electronic and zero-point Energies=          -3776.609319
 Sum of electronic and thermal Energies=             -3776.591464
 Sum of electronic and thermal Enthalpies=           -3776.590519
 Sum of electronic and thermal Free Energies=        -3776.660201

                     E (Thermal)             CV                S
                      KCal/Mol        Cal/Mol-Kelvin    Cal/Mol-Kelvin
 Total                   63.427             59.022            146.658
 Electronic               0.000              0.000              0.000
 Translational            0.889              2.981             43.467
 Rotational               0.889              2.981             34.500
 Vibrational             61.650             53.060             68.690
 Vibration     1          0.593              1.986              6.831
 Vibration     2          0.593              1.985              6.530
 Vibration     3          0.594              1.982              5.425
 Vibration     4          0.595              1.979              4.982
 Vibration     5          0.596              1.975              4.576
 Vibration     6          0.598              1.970              4.233
 Vibration     7          0.600              1.962              3.871
 Vibration     8          0.605              1.947              3.406
 Vibration     9          0.615              1.912              2.787
 Vibration    10          0.618              1.903              2.672
 Vibration    11          0.628              1.870              2.357
 Vibration    12          0.635              1.849              2.192
 Vibration    13          0.650              1.802              1.913
 Vibration    14          0.651              1.798              1.891
 Vibration    15          0.664              1.759              1.713
 Vibration    16          0.712              1.616              1.262
 Vibration    17          0.713              1.614              1.256
 Vibration    18          0.727              1.575              1.167
 Vibration    19          0.730              1.566              1.146
 Vibration    20          0.762              1.480              0.980
 Vibration    21          0.772              1.456              0.938
 Vibration    22          0.796              1.392              0.839
 Vibration    23          0.820              1.334              0.760
 Vibration    24          0.826              1.320              0.742
 Vibration    25          0.838              1.291              0.706
 Vibration    26          0.857              1.246              0.654
 Vibration    27          0.930              1.088              0.497
 Vibration    28          0.942              1.063              0.475

                           ! Non-Optimized Parameters !
 Normal termination of Gaussian 16 at Wed May 17 13:24:14 2023.
