 Gaussian 16, Revision A.03,
 Gaussian 16:  ES64L-G16RevA.03 25-Dec-2016

 -----------------------------
 # opt freq b3lyp/6-31g(2df,p)
 -----------------------------

 -------------------
 Title Card Required
 -------------------
 Symbolic Z-matrix:
 Charge =  0 Multiplicity = 1

 SCF Done:  E(RB3LYP) =  -2015.12074862     A.U. after   25 cycles
 SCF Done:  E(RB3LYP) =  -2015.17094024     A.U. after   15 cycles
 SCF Done:  E(RB3LYP) =  -2015.21228204     A.U. after   16 cycles
 SCF Done:  E(RB3LYP) =  -2015.22706089     A.U. after   15 cycles
 SCF Done:  E(RB3LYP) =  -2015.23628954     A.U. after   15 cycles
 SCF Done:  E(RB3LYP) =  -2015.23961178     A.U. after   15 cycles
 SCF Done:  E(RB3LYP) =  -2015.24145663     A.U. after   14 cycles
 SCF Done:  E(RB3LYP) =  -2015.24505905     A.U. after   17 cycles
 SCF Done:  E(RB3LYP) =  -2015.24794374     A.U. after   19 cycles
 SCF Done:  E(RB3LYP) =  -2015.25065464     A.U. after   17 cycles
 SCF Done:  E(RB3LYP) =  -2015.29078663     A.U. after   14 cycles
 SCF Done:  E(RB3LYP) =  -2015.29083835     A.U. after   13 cycles
 SCF Done:  E(RB3LYP) =  -2015.29085679     A.U. after   12 cycles
 SCF Done:  E(RB3LYP) =  -2015.29086606     A.U. after   12 cycles
 SCF Done:  E(RB3LYP) =  -2015.29087136     A.U. after   10 cycles
 SCF Done:  E(RB3LYP) =  -2015.29087429     A.U. after   10 cycles
 SCF Done:  E(RB3LYP) =  -2015.29087501     A.U. after    9 cycles
 SCF Done:  E(RB3LYP) =  -2015.29087514     A.U. after    8 cycles
 SCF Done:  E(RB3LYP) =  -2015.29087519     A.U. after    7 cycles
 Optimization completed.
    -- Stationary point found.
 Normal termination of Gaussian 16 at Wed May 17 05:01:53 2023.

 ----------------------------------------------------------------------
 #N Geom=AllCheck Guess=TCheck SCRF=Check GenChk RB3LYP/6-31G(2df,p) Fr
 eq
 ----------------------------------------------------------------------

 Structure from the checkpoint file:  "Sdc1cccc2cc-2sc2cqss1rdCCd2.chk"
 -------------------
 Title Card Required
 -------------------
 Charge =  0 Multiplicity = 1

                         Standard orientation:
 ---------------------------------------------------------------------
 Center     Atomic      Atomic             Coordinates (Angstroms)
 Number     Number       Type             X           Y           Z
 ---------------------------------------------------------------------
      1         16           0        6.077718   -0.493266   -0.203462
      2          6           0        4.417636   -0.032859   -0.024252
      3          6           0        3.635399    1.044202    0.146042
      4          6           0        2.213303    0.976345    0.259996
      5          6           0        1.400121    2.059370    0.427954
      6          6           0        0.003953    1.931584    0.495851
      7          6           0       -1.235063    2.449944    0.549079
      8          6           0       -1.151755    1.056982    0.532820
      9         16           0       -1.823076   -0.405063   -0.043573
     10          6           0       -3.378440   -0.128865   -0.613537
     11          6           0       -4.694361   -0.635669   -0.169623
     12         16           0       -5.241618   -1.849894    0.761611
     13         16           0        4.339974   -1.761143   -0.191410
     14          6           0       -5.330984    0.496434   -0.931713
     15          6           0       -4.104376    0.980422   -1.271780
     16          1           0        4.117327    2.016406    0.201192
     17          1           0        1.752803   -0.007218    0.203781
     18          1           0        1.821855    3.058341    0.496989
     19          1           0       -1.868119    3.321683    0.541522
     20          1           0       -6.354638    0.736998   -1.172738
     21          1           0       -3.769796    1.836326   -1.846425
 ---------------------------------------------------------------------

 SCF Done:  E(RB3LYP) =  -2015.29087519     A.U. after    1 cycles

 The electronic state is 1-A.
 Alpha  occ. eigenvalues --  -88.94438 -88.94334 -88.92071 -88.82627 -10.29311
 Alpha  occ. eigenvalues --  -10.26140 -10.25809 -10.25694 -10.23798 -10.23584
 Alpha  occ. eigenvalues --  -10.23148 -10.22653 -10.21127 -10.18938 -10.18209
 Alpha  occ. eigenvalues --   -8.00634  -8.00525  -7.97764  -7.89162  -5.97154
 Alpha  occ. eigenvalues --   -5.97054  -5.96831  -5.96723  -5.96052  -5.95933
 Alpha  occ. eigenvalues --   -5.94265  -5.93733  -5.93599  -5.85458  -5.85416
 Alpha  occ. eigenvalues --   -5.84717  -0.94643  -0.91853  -0.87729  -0.84173
 Alpha  occ. eigenvalues --   -0.79285  -0.76732  -0.72661  -0.68637  -0.65543
 Alpha  occ. eigenvalues --   -0.63039  -0.60127  -0.58750  -0.57013  -0.54560
 Alpha  occ. eigenvalues --   -0.52583  -0.49537  -0.47661  -0.44367  -0.43911
 Alpha  occ. eigenvalues --   -0.43046  -0.42052  -0.41823  -0.40269  -0.38880
 Alpha  occ. eigenvalues --   -0.38258  -0.37900  -0.36609  -0.35588  -0.34466
 Alpha  occ. eigenvalues --   -0.33487  -0.31397  -0.27937  -0.25510  -0.24946
 Alpha  occ. eigenvalues --   -0.24421  -0.19607  -0.15751
 Alpha virt. eigenvalues --   -0.11791  -0.10270  -0.05877  -0.04278  -0.00029
 Alpha virt. eigenvalues --    0.00141   0.03096   0.04746   0.05342   0.06848
 Alpha virt. eigenvalues --    0.09323   0.09860   0.10768   0.11398   0.12192

 Mulliken charges:
               1
     1  S   -0.043112
     2  C    0.249780
     3  C   -0.239614
     4  C   -0.057599
     5  C   -0.252874
     6  C    0.333430
     7  C   -0.255796
     8  C    0.031869
     9  S   -0.053963
    10  C   -0.011212
    11  C    0.229442
    12  S   -0.360695
    13  S   -0.046146
    14  C   -0.174379
    15  C   -0.132802
    16  H    0.125006
    17  H    0.130996
    18  H    0.111930
    19  H    0.180543
    20  H    0.120960
    21  H    0.114236
 Sum of Mulliken charges =  -0.00000

 Dipole moment (field-independent basis, Debye):
    X=              6.7343    Y=              5.9861    Z=             -1.0085  Tot=              9.0665
 Quadrupole moment (field-independent basis, Debye-Ang):
   XX=           -126.8506   YY=           -103.7075   ZZ=           -117.0128
   XY=            -15.2626   XZ=              6.8123   YZ=              2.0249

  Exact polarizability: 653.345  13.730 212.262  14.643  -5.187 112.196
 Approx polarizability:1275.082  63.271 427.737 100.365   1.945 232.960

                      1                      2                      3
                      A                      A                      A
 Frequencies --     16.5113                25.6756                34.9234
 Red. masses --     14.4225                 8.8950                13.1593
 Frc consts  --      0.0023                 0.0035                 0.0095
 IR Inten    --      1.0818                 0.2622                 1.1335

                      4                      5                      6
                      A                      A                      A
 Frequencies --     50.4690                65.3438                88.3731
 Red. masses --      9.5663                10.8465                 6.0236
 Frc consts  --      0.0144                 0.0273                 0.0277
 IR Inten    --      2.4024                 0.4042                 0.0374

                      7                      8                      9
                      A                      A                      A
 Frequencies --    102.1730               147.8254               178.2929
 Red. masses --      9.8436                12.8387                 6.4682
 Frc consts  --      0.0605                 0.1653                 0.1211
 IR Inten    --      1.1649                 5.0123                 1.4628

                     10                     11                     12
                      A                      A                      A
 Frequencies --    215.7519               230.5367               253.7822
 Red. masses --      4.5598                 3.5813                 3.0208
 Frc consts  --      0.1251                 0.1121                 0.1146
 IR Inten    --      0.8499                 6.4012                 7.3995

                     13                     14                     15
                      A                      A                      A
 Frequencies --    261.2429               309.1397               328.9422
 Red. masses --      6.6387                11.0045                 3.3441
 Frc consts  --      0.2669                 0.6196                 0.2132
 IR Inten    --     15.5878                 5.0375                21.1738

                     16                     17                     18
                      A                      A                      A
 Frequencies --    377.7004               417.5042               426.3383
 Red. masses --      4.7518                 5.8090                 5.3260
 Frc consts  --      0.3994                 0.5966                 0.5704
 IR Inten    --      2.5973                45.7378                15.7545

                     19                     20                     21
                      A                      A                      A
 Frequencies --    480.0798               513.7047               531.2486
 Red. masses --     16.3472                 4.6262                 4.7299
 Frc consts  --      2.2198                 0.7193                 0.7865
 IR Inten    --      3.8310                16.9623                10.9381

                     22                     23                     24
                      A                      A                      A
 Frequencies --    548.8144               578.6365               591.1811
 Red. masses --     10.1330                 7.3191                 6.3650
 Frc consts  --      1.7982                 1.4438                 1.3107
 IR Inten    --      5.3906                52.0302                12.5384

                     25                     26                     27
                      A                      A                      A
 Frequencies --    646.5243               675.3697               695.6400
 Red. masses --      1.7942                 6.9932                 2.7573
 Frc consts  --      0.4419                 1.8794                 0.7861
 IR Inten    --     16.1478                20.5428                37.6523

                     28                     29                     30
                      A                      A                      A
 Frequencies --    781.4093               795.6986               811.8155
 Red. masses --      8.1209                 8.8226                 1.4076
 Frc consts  --      2.9215                 3.2911                 0.5465
 IR Inten    --    263.4772                83.7598                28.6747

                     31                     32                     33
                      A                      A                      A
 Frequencies --    853.8878               884.2404               895.0787
 Red. masses --      1.3645                 1.9189                 4.0540
 Frc consts  --      0.5862                 0.8840                 1.9136
 IR Inten    --      0.6477                15.3681                42.9091

                     34                     35                     36
                      A                      A                      A
 Frequencies --    904.8389               964.3698               986.9602
 Red. masses --      1.4962                 3.1676                 1.1063
 Frc consts  --      0.7218                 1.7357                 0.6349
 IR Inten    --    105.9833                41.8428                32.5253

                     37                     38                     39
                      A                      A                      A
 Frequencies --   1009.2760              1034.9588              1153.9783
 Red. masses --      1.4506                 1.1609                 3.5951
 Frc consts  --      0.8706                 0.7326                 2.8207
 IR Inten    --      2.7045                11.7307               306.1322

                     40                     41                     42
                      A                      A                      A
 Frequencies --   1179.8479              1188.2189              1247.8690
 Red. masses --      3.3373                 4.1610                 1.8911
 Frc consts  --      2.7371                 3.4613                 1.7351
 IR Inten    --     58.1522                48.0993                 1.8613

                     43                     44                     45
                      A                      A                      A
 Frequencies --   1273.7232              1302.0673              1316.3975
 Red. masses --      2.0273                 2.5017                 1.6364
 Frc consts  --      1.9379                 2.4990                 1.6708
 IR Inten    --     35.3766                89.5272                14.3081

                     46                     47                     48
                      A                      A                      A
 Frequencies --   1349.5291              1371.5622              1500.3165
 Red. masses --      1.5182                 8.5861                 5.2509
 Frc consts  --      1.6290                 9.5165                 6.9639
 IR Inten    --     44.2200               410.9727                 0.1954

                     49                     50                     51
                      A                      A                      A
 Frequencies --   1602.5849              1654.3556              1771.6846
 Red. masses --      4.2254                 8.6234                 8.4127
 Frc consts  --      6.3938                13.9055                15.5582
 IR Inten    --     50.0598               304.4081               132.8657

                     52                     53                     54
                      A                      A                      A
 Frequencies --   3159.3064              3164.8968              3171.9970
 Red. masses --      1.0904                 1.0880                 1.0863
 Frc consts  --      6.4123                 6.4209                 6.4399
 IR Inten    --      0.2825                 2.7902                28.3811

                     55                     56                     57
                      A                      A                      A
 Frequencies --   3198.3169              3261.1929              3278.4280
 Red. masses --      1.0920                 1.1062                 1.1132
 Frc consts  --      6.5815                 6.9318                 7.0494
 IR Inten    --     21.2005                 3.3354                33.9416

 - Thermochemistry -
 -------------------
 Temperature   298.150 Kelvin.  Pressure   1.00000 Atm.
 Atom     1 has atomic number 16 and mass  31.97207

 Molecular mass:   265.93524 amu.
 Principal axes and moments of inertia in atomic units:
                           1         2         3
     Eigenvalues --  1961.76194********************
           X            0.99999  -0.00106   0.00360
           Y            0.00107   1.00000  -0.00158
           Z           -0.00360   0.00158   0.99999
 This molecule is an asymmetric top.
 Rotational symmetry number  1.
 Warning -- assumption of classical behavior for rotation
           may cause significant error
 Rotational temperatures (Kelvin)      0.04415     0.00554     0.00508
 Rotational constants (GHZ):           0.91996     0.11543     0.10575
 Zero-point vibrational energy     334120.2 (Joules/Mol)
                                   79.85664 (Kcal/Mol)
 Warning -- explicit consideration of  24 degrees of freedom as
           vibrations may cause significant error
 Vibrational temperatures:     23.76    36.94    50.25    72.61    94.02
          (Kelvin)            127.15   147.00   212.69   256.52   310.42
                              331.69   365.14   375.87   444.78   473.27
                              543.43   600.70   613.41   690.73   739.11
                              764.35   789.62   832.53   850.58   930.20
                              971.71  1000.87  1124.27  1144.83  1168.02
                             1228.55  1272.22  1287.82  1301.86  1387.51
                             1420.02  1452.12  1489.07  1660.32  1697.54
                             1709.58  1795.41  1832.60  1873.38  1894.00
                             1941.67  1973.37  2158.62  2305.76  2380.25
                             2549.06  4545.54  4553.58  4563.80  4601.66
                             4692.13  4716.93

 Zero-point correction=                           0.127260 (Hartree/Particle)
 Thermal correction to Energy=                    0.143133
 Thermal correction to Enthalpy=                  0.144077
 Thermal correction to Gibbs Free Energy=         0.079353
 Sum of electronic and zero-point Energies=          -2015.163616
 Sum of electronic and thermal Energies=             -2015.147742
 Sum of electronic and thermal Enthalpies=           -2015.146798
 Sum of electronic and thermal Free Energies=        -2015.211523

                     E (Thermal)             CV                S
                      KCal/Mol        Cal/Mol-Kelvin    Cal/Mol-Kelvin
 Total                   89.817             55.215            136.224
 Electronic               0.000              0.000              0.000
 Translational            0.889              2.981             42.633
 Rotational               0.889              2.981             34.614
 Vibrational             88.040             49.253             58.977
 Vibration     1          0.593              1.986              7.015
 Vibration     2          0.593              1.985              6.138
 Vibration     3          0.594              1.983              5.528
 Vibration     4          0.595              1.977              4.799
 Vibration     5          0.597              1.971              4.289
 Vibration     6          0.601              1.957              3.696
 Vibration     7          0.604              1.947              3.412
 Vibration     8          0.617              1.905              2.700
 Vibration     9          0.629              1.869              2.346
 Vibration    10          0.645              1.817              1.994
 Vibration    11          0.652              1.794              1.875
 Vibration    12          0.665              1.756              1.704
 Vibration    13          0.669              1.744              1.653
 Vibration    14          0.698              1.656              1.367
 Vibration    15          0.712              1.618              1.265
 Vibration    16          0.748              1.518              1.048
 Vibration    17          0.781              1.432              0.900
 Vibration    18          0.788              1.413              0.871
 Vibration    19          0.836              1.294              0.710
 Vibration    20          0.869              1.220              0.625
 Vibration    21          0.886              1.181              0.584
 Vibration    22          0.904              1.142              0.547
 Vibration    23          0.935              1.077              0.488
 Vibration    24          0.949              1.051              0.465

                           ! Non-Optimized Parameters !
 Normal termination of Gaussian 16 at Wed May 17 06:05:44 2023.
