 Gaussian 16, Revision A.03,
 Gaussian 16:  ES64L-G16RevA.03 25-Dec-2016

 -----------------------------
 # opt freq b3lyp/6-31g(2df,p)
 -----------------------------

 -------------------
 Title Card Required
 -------------------
 Symbolic Z-matrix:
 Charge =  0 Multiplicity = 1

 SCF Done:  E(RB3LYP) =  -2016.36499625     A.U. after   24 cycles
 SCF Done:  E(RB3LYP) =  -2016.42248671     A.U. after   17 cycles
 SCF Done:  E(RB3LYP) =  -2016.47335501     A.U. after   17 cycles
 SCF Done:  E(RB3LYP) =  -2016.50986952     A.U. after   18 cycles
 SCF Done:  E(RB3LYP) =  -2016.54628049     A.U. after   17 cycles
 SCF Done:  E(RB3LYP) =  -2016.56830693     A.U. after   15 cycles
 SCF Done:  E(RB3LYP) =  -2016.58530642     A.U. after   15 cycles
 SCF Done:  E(RB3LYP) =  -2016.59468856     A.U. after   15 cycles
 SCF Done:  E(RB3LYP) =  -2016.59806254     A.U. after   15 cycles
 SCF Done:  E(RB3LYP) =  -2016.60048148     A.U. after   14 cycles
 SCF Done:  E(RB3LYP) =  -2016.60358661     A.U. after   13 cycles
 SCF Done:  E(RB3LYP) =  -2016.60360269     A.U. after   14 cycles
 SCF Done:  E(RB3LYP) =  -2016.60370449     A.U. after   13 cycles
 SCF Done:  E(RB3LYP) =  -2016.60372035     A.U. after   10 cycles
 SCF Done:  E(RB3LYP) =  -2016.60372926     A.U. after   11 cycles
 SCF Done:  E(RB3LYP) =  -2016.60373283     A.U. after   10 cycles
 SCF Done:  E(RB3LYP) =  -2016.60373483     A.U. after   10 cycles
 SCF Done:  E(RB3LYP) =  -2016.60373543     A.U. after    9 cycles
 SCF Done:  E(RB3LYP) =  -2016.60373560     A.U. after    7 cycles
 Optimization completed.
    -- Stationary point found.
 Normal termination of Gaussian 16 at Wed May 17 02:20:42 2023.

 ----------------------------------------------------------------------
 #N Geom=AllCheck Guess=TCheck SCRF=Check GenChk RB3LYP/6-31G(2df,p) Fr
 eq
 ----------------------------------------------------------------------

 Structure from the checkpoint file:  "SdC1CdCCdCd[SH]c2ccccc2SS1.chk"
 -------------------
 Title Card Required
 -------------------
 Charge =  0 Multiplicity = 1

                         Standard orientation:
 ---------------------------------------------------------------------
 Center     Atomic      Atomic             Coordinates (Angstroms)
 Number     Number       Type             X           Y           Z
 ---------------------------------------------------------------------
      1         16           0       -4.444552    0.848757   -0.423148
      2          6           0       -2.965788    0.227357   -0.078892
      3          6           0       -2.663629   -1.035390    0.550494
      4          6           0       -1.502037   -1.645233    0.215897
      5          6           0       -0.685711   -2.622512    0.865272
      6          6           0        0.664280   -2.678713    0.681701
      7         16           0        1.333664   -1.868827   -0.767920
      8          6           0        2.198532   -0.368354   -0.268727
      9          6           0        3.572281   -0.419580   -0.502159
     10          6           0        4.383067    0.685054   -0.254640
     11          6           0        3.806745    1.859964    0.206703
     12          6           0        2.434470    1.917535    0.435277
     13          6           0        1.595977    0.811024    0.229129
     14         16           0       -0.047160    1.060102    0.921247
     15         16           0       -1.586473    1.316805   -0.547055
     16          1           0       -3.365245   -1.418802    1.284146
     17          1           0       -1.021038   -1.168377   -0.624875
     18          1           0       -1.090266   -3.183923    1.706694
     19          1           0        0.504091   -1.181297   -1.646693
     20          1           0        4.004059   -1.336636   -0.886266
     21          1           0        5.449994    0.622059   -0.435780
     22          1           0        4.416116    2.738051    0.390137
     23          1           0        1.985507    2.832616    0.802315
 ---------------------------------------------------------------------

 SCF Done:  E(RB3LYP) =  -2016.60373560     A.U. after    1 cycles

 The electronic state is 1-A.
 Alpha  occ. eigenvalues --  -88.97245 -88.91522 -88.91000 -88.85253 -10.27708
 Alpha  occ. eigenvalues --  -10.26478 -10.26129 -10.23270 -10.22744 -10.22728
 Alpha  occ. eigenvalues --  -10.22624 -10.21253 -10.20350 -10.20314 -10.20118
 Alpha  occ. eigenvalues --   -8.02949  -7.97648  -7.97138  -7.91786  -5.99323
 Alpha  occ. eigenvalues --   -5.99191  -5.98642  -5.94190  -5.93690  -5.93663
 Alpha  occ. eigenvalues --   -5.93299  -5.93208  -5.92605  -5.88109  -5.87956
 Alpha  occ. eigenvalues --   -5.87390  -0.90964  -0.86166  -0.84955  -0.81476
 Alpha  occ. eigenvalues --   -0.79955  -0.76257  -0.75339  -0.72027  -0.67824
 Alpha  occ. eigenvalues --   -0.63934  -0.62596  -0.61137  -0.55755  -0.54108
 Alpha  occ. eigenvalues --   -0.52917  -0.50410  -0.48420  -0.48098  -0.47189
 Alpha  occ. eigenvalues --   -0.45618  -0.44065  -0.42325  -0.41270  -0.39631
 Alpha  occ. eigenvalues --   -0.38682  -0.38039  -0.37134  -0.35060  -0.34469
 Alpha  occ. eigenvalues --   -0.33102  -0.32310  -0.29563  -0.29242  -0.26649
 Alpha  occ. eigenvalues --   -0.24036  -0.23763  -0.22089  -0.21724
 Alpha virt. eigenvalues --   -0.09718  -0.08285  -0.04588  -0.04035  -0.02477
 Alpha virt. eigenvalues --   -0.00107   0.00848   0.02380   0.04577   0.06271
 Alpha virt. eigenvalues --    0.07636   0.08753   0.10513   0.11794   0.12208

 Mulliken charges:
               1
     1  S   -0.294319
     2  C    0.196307
     3  C   -0.197337
     4  C    0.055939
     5  C   -0.121250
     6  C   -0.197795
     7  S    0.014445
     8  C    0.127604
     9  C   -0.148951
    10  C   -0.106962
    11  C   -0.100370
    12  C   -0.121825
    13  C    0.096713
    14  S   -0.123229
    15  S   -0.054213
    16  H    0.127005
    17  H    0.078245
    18  H    0.114582
    19  H    0.132531
    20  H    0.135750
    21  H    0.123793
    22  H    0.122874
    23  H    0.140464
 Sum of Mulliken charges =  -0.00000

 Dipole moment (field-independent basis, Debye):
    X=              6.0799    Y=              0.3413    Z=             -1.0275  Tot=              6.1756
 Quadrupole moment (field-independent basis, Debye-Ang):
   XX=           -112.1804   YY=           -117.9831   ZZ=           -114.9707
   XY=             13.0437   XZ=             -6.9353   YZ=              4.2126

  Exact polarizability: 358.988 -15.659 194.669  -0.617  -8.148 119.177
 Approx polarizability: 685.775 -92.817 376.021  21.715 -29.315 247.194

                      1                      2                      3
                      A                      A                      A
 Frequencies --     31.3343                63.6423                78.1488
 Red. masses --      9.2866                 9.7360                 8.3648
 Frc consts  --      0.0054                 0.0232                 0.0301
 IR Inten    --      0.7229                 2.4568                 0.2529

                      4                      5                      6
                      A                      A                      A
 Frequencies --    123.4736               134.9333               144.2099
 Red. masses --      5.7628                 6.5213                 8.4262
 Frc consts  --      0.0518                 0.0700                 0.1032
 IR Inten    --      1.5934                 0.6556                 4.5269

                      7                      8                      9
                      A                      A                      A
 Frequencies --    185.4696               211.0476               221.0203
 Red. masses --      5.1548                 6.9486                 6.3113
 Frc consts  --      0.1045                 0.1824                 0.1816
 IR Inten    --      3.6402                 1.9622                 0.2256

                     10                     11                     12
                      A                      A                      A
 Frequencies --    240.3489               260.5600               314.1499
 Red. masses --      4.8763                 9.3509                 6.8898
 Frc consts  --      0.1660                 0.3740                 0.4006
 IR Inten    --      2.4695                 1.5178                 0.6699

                     13                     14                     15
                      A                      A                      A
 Frequencies --    355.9868               392.3065               403.5622
 Red. masses --      4.4555                 6.3965                 4.2927
 Frc consts  --      0.3327                 0.5800                 0.4119
 IR Inten    --     11.1322                 7.7660                 7.1499

                     16                     17                     18
                      A                      A                      A
 Frequencies --    415.9542               435.9126               437.3086
 Red. masses --     10.6227                 8.9467                 5.1078
 Frc consts  --      1.0829                 1.0016                 0.5755
 IR Inten    --      2.9029                11.2725                 9.1687

                     19                     20                     21
                      A                      A                      A
 Frequencies --    474.7407               510.0215               528.5475
 Red. masses --      8.8692                 5.3022                 4.6533
 Frc consts  --      1.1777                 0.8126                 0.7659
 IR Inten    --      2.4321                17.0695                35.6615

                     22                     23                     24
                      A                      A                      A
 Frequencies --    542.2355               575.3270               607.7358
 Red. masses --      5.6899                 6.0402                 3.6590
 Frc consts  --      0.9857                 1.1780                 0.7962
 IR Inten    --     25.0285                14.0418                30.5636

                     25                     26                     27
                      A                      A                      A
 Frequencies --    647.7868               722.3138               739.9948
 Red. masses --      6.6347                 3.7275                 5.7393
 Frc consts  --      1.6403                 1.1458                 1.8517
 IR Inten    --      1.6380                 3.1933                 2.5555

                     28                     29                     30
                      A                      A                      A
 Frequencies --    782.1537               799.5430               840.3480
 Red. masses --      1.2337                 1.4100                 1.5290
 Frc consts  --      0.4447                 0.5311                 0.6362
 IR Inten    --     35.4137                19.6318                14.0346

                     31                     32                     33
                      A                      A                      A
 Frequencies --    894.9430               907.1717               921.0192
 Red. masses --      1.2428                 1.5278                 1.3429
 Frc consts  --      0.5865                 0.7408                 0.6712
 IR Inten    --     43.2283                29.3243                39.7741

                     34                     35                     36
                      A                      A                      A
 Frequencies --    957.1801               971.3799              1001.7161
 Red. masses --      3.6466                 1.3539                 1.3112
 Frc consts  --      1.9684                 0.7527                 0.7752
 IR Inten    --    126.7591                 1.5841                 0.2720

                     37                     38                     39
                      A                      A                      A
 Frequencies --   1007.9680              1026.7813              1056.5187
 Red. masses --      1.3995                 7.3923                 4.4584
 Frc consts  --      0.8378                 4.5919                 2.9321
 IR Inten    --    105.6374                 5.1163                 0.5041

                     40                     41                     42
                      A                      A                      A
 Frequencies --   1116.3984              1139.9268              1160.2494
 Red. masses --      2.0993                 1.7647                 4.6403
 Frc consts  --      1.5415                 1.3510                 3.6805
 IR Inten    --      2.8059                 0.8663                11.7511

                     43                     44                     45
                      A                      A                      A
 Frequencies --   1190.6221              1201.2193              1252.0959
 Red. masses --      1.0802                 1.3776                 1.5644
 Frc consts  --      0.9022                 1.1711                 1.4450
 IR Inten    --      0.0763                47.3823                62.6966

                     46                     47                     48
                      A                      A                      A
 Frequencies --   1279.0585              1303.7252              1310.2257
 Red. masses --      1.5721                 5.2633                 2.7209
 Frc consts  --      1.5153                 5.2709                 2.7520
 IR Inten    --      3.7283                19.8319               132.5034

                     49                     50                     51
                      A                      A                      A
 Frequencies --   1416.0498              1449.6829              1469.6832
 Red. masses --      1.2728                 1.9264                 2.3052
 Frc consts  --      1.5037                 2.3854                 2.9336
 IR Inten    --     17.0443                 8.6751                16.6418

                     52                     53                     54
                      A                      A                      A
 Frequencies --   1523.0479              1592.8142              1607.1819
 Red. masses --      5.7932                 5.1526                 5.3241
 Frc consts  --      7.9176                 7.7020                 8.1027
 IR Inten    --      9.2067                 1.0742                 3.9930

                     55                     56                     57
                      A                      A                      A
 Frequencies --   1629.8060              2272.6731              3133.4298
 Red. masses --      4.4275                 1.0377                 1.0867
 Frc consts  --      6.9291                 3.1579                 6.2861
 IR Inten    --    209.0955               109.1740                11.4509

                     58                     59                     60
                      A                      A                      A
 Frequencies --   3186.0240              3186.0365              3196.1194
 Red. masses --      1.0865                 1.0893                 1.0896
 Frc consts  --      6.4978                 6.5148                 6.5579
 IR Inten    --      1.9581                 0.2192                 3.0255

                     61                     62                     63
                      A                      A                      A
 Frequencies --   3206.4513              3212.7233              3222.5330
 Red. masses --      1.0932                 1.0970                 1.0814
 Frc consts  --      6.6222                 6.6714                 6.6164
 IR Inten    --      3.3263                 8.4421                 4.9434

 - Thermochemistry -
 -------------------
 Temperature   298.150 Kelvin.  Pressure   1.00000 Atm.
 Atom     1 has atomic number 16 and mass  31.97207

 Molecular mass:   267.95089 amu.
 Principal axes and moments of inertia in atomic units:
                           1         2         3
     Eigenvalues --  2405.476056771.942808479.90819
           X            0.99979   0.01970  -0.00521
           Y           -0.01970   0.99981  -0.00087
           Z            0.00519   0.00097   0.99999
 This molecule is an asymmetric top.
 Rotational symmetry number  1.
 Warning -- assumption of classical behavior for rotation
           may cause significant error
 Rotational temperatures (Kelvin)      0.03601     0.01279     0.01021
 Rotational constants (GHZ):           0.75026     0.26650     0.21283
 Zero-point vibrational energy     402080.3 (Joules/Mol)
                                   96.09949 (Kcal/Mol)
 Warning -- explicit consideration of  24 degrees of freedom as
           vibrations may cause significant error
 Vibrational temperatures:     45.08    91.57   112.44   177.65   194.14
          (Kelvin)            207.49   266.85   303.65   318.00   345.81
                              374.89   451.99   512.19   564.44   580.64
                              598.47   627.18   629.19   683.05   733.81
                              760.46   780.16   827.77   874.40   932.02
                             1039.25  1064.69  1125.34  1150.36  1209.07
                             1287.62  1305.22  1325.14  1377.17  1397.60
                             1441.25  1450.24  1477.31  1520.09  1606.25
                             1640.10  1669.34  1713.04  1728.29  1801.49
                             1840.28  1875.77  1885.12  2037.38  2085.77
                             2114.55  2191.33  2291.70  2312.38  2344.93
                             3269.87  4508.31  4583.98  4584.00  4598.50
                             4613.37  4622.39  4636.51

 Zero-point correction=                           0.153144 (Hartree/Particle)
 Thermal correction to Energy=                    0.167614
 Thermal correction to Enthalpy=                  0.168558
 Thermal correction to Gibbs Free Energy=         0.110726
 Sum of electronic and zero-point Energies=          -2016.450591
 Sum of electronic and thermal Energies=             -2016.436122
 Sum of electronic and thermal Enthalpies=           -2016.435178
 Sum of electronic and thermal Free Energies=        -2016.493010

                     E (Thermal)             CV                S
                      KCal/Mol        Cal/Mol-Kelvin    Cal/Mol-Kelvin
 Total                  105.179             54.398            121.718
 Electronic               0.000              0.000              0.000
 Translational            0.889              2.981             42.656
 Rotational               0.889              2.981             33.290
 Vibrational            103.402             48.436             45.772
 Vibration     1          0.594              1.983              5.743
 Vibration     2          0.597              1.972              4.341
 Vibration     3          0.599              1.964              3.937
 Vibration     4          0.610              1.929              3.045
 Vibration     5          0.613              1.918              2.874
 Vibration     6          0.616              1.909              2.747
 Vibration     7          0.632              1.860              2.273
 Vibration     8          0.643              1.824              2.035
 Vibration     9          0.648              1.809              1.951
 Vibration    10          0.657              1.779              1.800
 Vibration    11          0.669              1.745              1.658
 Vibration    12          0.702              1.647              1.340
 Vibration    13          0.731              1.563              1.140
 Vibration    14          0.760              1.487              0.991
 Vibration    15          0.769              1.462              0.950
 Vibration    16          0.779              1.436              0.906
 Vibration    17          0.796              1.392              0.840
 Vibration    18          0.798              1.389              0.835
 Vibration    19          0.831              1.306              0.724
 Vibration    20          0.865              1.228              0.634
 Vibration    21          0.884              1.187              0.590
 Vibration    22          0.897              1.157              0.560
 Vibration    23          0.932              1.085              0.494
 Vibration    24          0.967              1.015              0.437

 Optimization completed.
    -- Stationary point found.
 Normal termination of Gaussian 16 at Wed May 17 03:59:38 2023.
