 Gaussian 16, Revision A.03,
 Gaussian 16:  ES64L-G16RevA.03 25-Dec-2016

 -----------------------------
 # opt freq b3lyp/6-31g(2df,p)
 -----------------------------

 -------------------
 Title Card Required
 -------------------
 Symbolic Z-matrix:
 Charge =  0 Multiplicity = 1

 SCF Done:  E(RB3LYP) =  -1259.35825375     A.U. after   23 cycles
 SCF Done:  E(RB3LYP) =  -1259.40929433     A.U. after   15 cycles
 SCF Done:  E(RB3LYP) =  -1259.44389824     A.U. after   15 cycles
 SCF Done:  E(RB3LYP) =  -1259.46664589     A.U. after   15 cycles
 SCF Done:  E(RB3LYP) =  -1259.48189155     A.U. after   15 cycles
 SCF Done:  E(RB3LYP) =  -1259.48912006     A.U. after   14 cycles
 SCF Done:  E(RB3LYP) =  -1259.49234505     A.U. after   14 cycles
 SCF Done:  E(RB3LYP) =  -1259.49284972     A.U. after   13 cycles
 SCF Done:  E(RB3LYP) =  -1259.49339450     A.U. after   13 cycles
 SCF Done:  E(RB3LYP) =  -1259.49368705     A.U. after   13 cycles
 SCF Done:  E(RB3LYP) =  -1259.49389107     A.U. after   13 cycles
 SCF Done:  E(RB3LYP) =  -1259.49392338     A.U. after   10 cycles
 SCF Done:  E(RB3LYP) =  -1259.49393689     A.U. after   10 cycles
 SCF Done:  E(RB3LYP) =  -1259.49393766     A.U. after    8 cycles
 Optimization completed.
    -- Stationary point found.
 Normal termination of Gaussian 16 at Thu May 18 08:11:41 2023.

 ----------------------------------------------------------------------
 #N Geom=AllCheck Guess=TCheck SCRF=Check GenChk RB3LYP/6-31G(2df,p) Fr
 eq
 ----------------------------------------------------------------------

 Structure from the checkpoint file:  "SdC1CCdC2CdCCdCCdCC2dCS1.chk"
 -------------------
 Title Card Required
 -------------------
 Charge =  0 Multiplicity = 1

                         Standard orientation:
 ---------------------------------------------------------------------
 Center     Atomic      Atomic             Coordinates (Angstroms)
 Number     Number       Type             X           Y           Z
 ---------------------------------------------------------------------
      1         16           0        4.031057   -0.312520   -0.446969
      2          6           0        2.537279    0.031135    0.119962
      3          6           0        1.837723   -0.700312    1.249437
      4          6           0        0.700341   -1.502769    0.680400
      5          6           0       -0.502015   -0.997570    0.356497
      6          6           0       -1.667154   -1.804428   -0.106805
      7          6           0       -2.351918   -1.295175   -1.169328
      8          6           0       -3.635052   -0.755246   -0.781687
      9          6           0       -3.598356    0.610066   -0.784823
     10          6           0       -3.362451    1.117305    0.599623
     11          6           0       -2.133633    0.955869    1.137305
     12          6           0       -0.827697    0.457571    0.516728
     13          6           0        0.042911    1.433374    0.168885
     14         16           0        1.621276    1.339080   -0.613678
     15          1           0        1.458312    0.039597    1.965100
     16          1           0        2.566253   -1.341732    1.746196
     17          1           0        0.890713   -2.554631    0.487617
     18          1           0       -2.223515   -2.324562    0.671876
     19          1           0       -1.803974   -0.745039   -1.930381
     20          1           0       -4.155759   -1.267339    0.025007
     21          1           0       -3.014525    1.101834   -1.561752
     22          1           0       -4.142163    1.560539    1.215493
     23          1           0       -1.995315    1.335516    2.150090
     24          1           0       -0.257222    2.471944    0.283927
 ---------------------------------------------------------------------

 SCF Done:  E(RB3LYP) =  -1259.49393766     A.U. after    1 cycles

 The electronic state is 1-A.
 Alpha  occ. eigenvalues --  -88.91326 -88.84900 -10.28087 -10.23007 -10.22927
 Alpha  occ. eigenvalues --  -10.22540 -10.21982 -10.21867 -10.21623 -10.21298
 Alpha  occ. eigenvalues --  -10.21162 -10.20856 -10.19652 -10.19533  -7.97491
 Alpha  occ. eigenvalues --   -7.91469  -5.93941  -5.93504  -5.93208  -5.87806
 Alpha  occ. eigenvalues --   -5.87654  -5.87038  -0.88324  -0.85945  -0.81695
 Alpha  occ. eigenvalues --   -0.81174  -0.78328  -0.73919  -0.70449  -0.69336
 Alpha  occ. eigenvalues --   -0.62056  -0.61823  -0.58211  -0.56081  -0.53407
 Alpha  occ. eigenvalues --   -0.51458  -0.49215  -0.47616  -0.46806  -0.45832
 Alpha  occ. eigenvalues --   -0.44995  -0.43315  -0.41911  -0.40979  -0.40821
 Alpha  occ. eigenvalues --   -0.38864  -0.37128  -0.36156  -0.33782  -0.33101
 Alpha  occ. eigenvalues --   -0.31124  -0.30374  -0.27315  -0.27008  -0.22988
 Alpha  occ. eigenvalues --   -0.22169  -0.20059
 Alpha virt. eigenvalues --   -0.06995  -0.05269  -0.04784  -0.04236  -0.00173
 Alpha virt. eigenvalues --    0.02787   0.06547   0.07068   0.08893   0.09289
 Alpha virt. eigenvalues --    0.10931   0.11782   0.12931   0.13453   0.14405

 Mulliken charges:
               1
     1  S   -0.319058
     2  C    0.249141
     3  C   -0.335641
     4  C   -0.180673
     5  C    0.249296
     6  C   -0.225562
     7  C   -0.090866
     8  C   -0.053401
     9  C   -0.194439
    10  C   -0.081794
    11  C   -0.145692
    12  C    0.150058
    13  C   -0.200510
    14  S   -0.020345
    15  H    0.133781
    16  H    0.140594
    17  H    0.115746
    18  H    0.105698
    19  H    0.121864
    20  H    0.116104
    21  H    0.111081
    22  H    0.107811
    23  H    0.114207
    24  H    0.132599
 Sum of Mulliken charges =  -0.00000

 Dipole moment (field-independent basis, Debye):
    X=             -3.9074    Y=              0.1630    Z=              2.2007  Tot=              4.4875
 Quadrupole moment (field-independent basis, Debye-Ang):
   XX=           -108.3467   YY=            -93.4540   ZZ=            -93.6913
   XY=             -0.7125   XZ=              1.1087   YZ=             -0.1512

  Exact polarizability: 258.404 -25.462 146.922  -2.882  -5.509 114.328
 Approx polarizability: 430.466 -81.716 301.921   5.833 -24.920 208.278

                      1                      2                      3
                      A                      A                      A
 Frequencies --     49.5336                75.9773                88.4189
 Red. masses --      9.6069                 6.9820                 4.9493
 Frc consts  --      0.0139                 0.0237                 0.0228
 IR Inten    --      0.4185                 0.2936                 0.4313

                      4                      5                      6
                      A                      A                      A
 Frequencies --    170.8984               184.8165               220.0929
 Red. masses --      2.9840                 6.3415                 4.9862
 Frc consts  --      0.0513                 0.1276                 0.1423
 IR Inten    --      3.1089                 0.7148                 1.1742

                      7                      8                      9
                      A                      A                      A
 Frequencies --    262.4965               286.2244               313.8893
 Red. masses --      5.7469                 3.9657                 4.0278
 Frc consts  --      0.2333                 0.1914                 0.2338
 IR Inten    --      0.2846                 4.5980                 1.4152

                     10                     11                     12
                      A                      A                      A
 Frequencies --    326.4684               355.6037               374.8467
 Red. masses --      5.0721                 2.4313                 2.9799
 Frc consts  --      0.3185                 0.1811                 0.2467
 IR Inten    --      4.4418                22.0640                11.5754

                     13                     14                     15
                      A                      A                      A
 Frequencies --    400.1129               452.8023               460.6219
 Red. masses --      3.8555                 3.5431                 4.4265
 Frc consts  --      0.3637                 0.4280                 0.5533
 IR Inten    --      3.7946                 8.1494                 1.7791

                     16                     17                     18
                      A                      A                      A
 Frequencies --    515.8095               538.9459               549.0062
 Red. masses --      4.7218                 4.0495                 3.7773
 Frc consts  --      0.7402                 0.6930                 0.6708
 IR Inten    --      4.9253                 1.1513                 4.8104

                     19                     20                     21
                      A                      A                      A
 Frequencies --    591.8839               655.0515               674.1535
 Red. masses --      3.7906                 4.7817                 3.1149
 Frc consts  --      0.7824                 1.2089                 0.8341
 IR Inten    --     10.7105                12.5714                11.6537

                     22                     23                     24
                      A                      A                      A
 Frequencies --    717.0107               723.4705               768.2170
 Red. masses --      3.5799                 2.0196                 2.1639
 Frc consts  --      1.0844                 0.6228                 0.7524
 IR Inten    --     29.5832                 9.3517               297.1521

                     25                     26                     27
                      A                      A                      A
 Frequencies --    774.8460               806.7799               837.5974
 Red. masses --      2.3900                 1.8851                 3.6514
 Frc consts  --      0.8454                 0.7229                 1.5093
 IR Inten    --     46.2229                 6.7964                12.3392

                     28                     29                     30
                      A                      A                      A
 Frequencies --    857.8158               872.3751               915.3969
 Red. masses --      2.3578                 1.5692                 1.6706
 Frc consts  --      1.0222                 0.7036                 0.8248
 IR Inten    --     58.0604                11.2672                23.5038

                     31                     32                     33
                      A                      A                      A
 Frequencies --    956.8602               973.8125               989.0529
 Red. masses --      2.6466                 1.3279                 1.3049
 Frc consts  --      1.4277                 0.7419                 0.7521
 IR Inten    --     61.0669                 3.9918                 6.6306

                     34                     35                     36
                      A                      A                      A
 Frequencies --   1029.6326              1065.9226              1073.9292
 Red. masses --      3.0508                 1.4998                 2.8172
 Frc consts  --      1.9056                 1.0040                 1.9143
 IR Inten    --     25.5569                60.7279                27.1252

                     37                     38                     39
                      A                      A                      A
 Frequencies --   1094.9441              1138.9927              1147.6788
 Red. masses --      2.6386                 3.5308                 2.5530
 Frc consts  --      1.8638                 2.6988                 1.9813
 IR Inten    --      0.5421                 2.9523                 6.8084

                     40                     41                     42
                      A                      A                      A
 Frequencies --   1176.0218              1213.6234              1239.8043
 Red. masses --      4.1175                 1.1476                 1.1327
 Frc consts  --      3.3551                 0.9959                 1.0259
 IR Inten    --    112.6406                 7.1457                15.1167

                     43                     44                     45
                      A                      A                      A
 Frequencies --   1250.5200              1299.4115              1302.4784
 Red. masses --      1.3715                 1.3912                 1.2801
 Frc consts  --      1.2636                 1.3839                 1.2795
 IR Inten    --     52.6381                11.3998                 2.8772

                     46                     47                     48
                      A                      A                      A
 Frequencies --   1304.9382              1326.1031              1334.8336
 Red. masses --      1.3905                 1.4670                 1.3221
 Frc consts  --      1.3951                 1.5199                 1.3880
 IR Inten    --     34.8039                 1.2466                 1.2891

                     49                     50                     51
                      A                      A                      A
 Frequencies --   1354.2808              1375.9911              1466.3482
 Red. masses --      1.5416                 1.3912                 1.0984
 Frc consts  --      1.6658                 1.5519                 1.3915
 IR Inten    --      0.2402                10.1542                 7.1645

                     52                     53                     54
                      A                      A                      A
 Frequencies --   1510.4289              1541.0109              1558.0690
 Red. masses --      3.9425                 4.0596                 8.3454
 Frc consts  --      5.2993                 5.6800                11.9364
 IR Inten    --     19.7209                15.4088                 1.0063

                     55                     56                     57
                      A                      A                      A
 Frequencies --   1604.9100              1669.0772              3029.6090
 Red. masses --      7.9909                 7.8872                 1.0649
 Frc consts  --     12.1268                12.9457                 5.7590
 IR Inten    --      1.4008                 6.7264                 6.9091

                     58                     59                     60
                      A                      A                      A
 Frequencies --   3114.6346              3119.5490              3121.5037
 Red. masses --      1.0830                 1.0855                 1.0854
 Frc consts  --      6.1901                 6.2240                 6.2312
 IR Inten    --      4.5323                 7.1007                 8.9215

                     61                     62                     63
                      A                      A                      A
 Frequencies --   3126.2119              3141.7474              3147.1007
 Red. masses --      1.0964                 1.0884                 1.0923
 Frc consts  --      6.3136                 6.3298                 6.3741
 IR Inten    --      3.9847                14.3903                41.8219

                     64                     65                     66
                      A                      A                      A
 Frequencies --   3155.9212              3156.4401              3174.0042
 Red. masses --      1.0882                 1.0885                 1.0903
 Frc consts  --      6.3857                 6.3898                 6.4717
 IR Inten    --     14.6127                 4.9119                 5.2920

 - Thermochemistry -
 -------------------
 Temperature   298.150 Kelvin.  Pressure   1.00000 Atm.
 Atom     1 has atomic number 16 and mass  31.97207

 Molecular mass:   218.02239 amu.
 Principal axes and moments of inertia in atomic units:
                           1         2         3
     Eigenvalues --  1341.476035451.727405943.01631
           X            0.99998  -0.00590   0.00355
           Y            0.00590   0.99998   0.00001
           Z           -0.00355   0.00001   0.99999
 This molecule is an asymmetric top.
 Rotational symmetry number  1.
 Warning -- assumption of classical behavior for rotation
           may cause significant error
 Rotational temperatures (Kelvin)      0.06457     0.01589     0.01457
 Rotational constants (GHZ):           1.34534     0.33104     0.30367
 Zero-point vibrational energy     473162.3 (Joules/Mol)
                                  113.08851 (Kcal/Mol)
 Warning -- explicit consideration of  19 degrees of freedom as
           vibrations may cause significant error
 Vibrational temperatures:     71.27   109.31   127.22   245.88   265.91
          (Kelvin)            316.66   377.67   411.81   451.62   469.72
                              511.63   539.32   575.67   651.48   662.73
                              742.13   775.42   789.90   851.59   942.47
                              969.96  1031.62  1040.91  1105.29  1114.83
                             1160.78  1205.12  1234.21  1255.15  1317.05
                             1376.71  1401.10  1423.03  1481.41  1533.62
                             1545.14  1575.38  1638.76  1651.25  1692.03
                             1746.13  1783.80  1799.22  1869.56  1873.98
                             1877.52  1907.97  1920.53  1948.51  1979.74
                             2109.75  2173.17  2217.17  2241.71  2309.11
                             2401.43  4358.93  4481.26  4488.34  4491.15
                             4497.92  4520.27  4527.98  4540.67  4541.41
                             4566.68

 Zero-point correction=                           0.180218 (Hartree/Particle)
 Thermal correction to Energy=                    0.192519
 Thermal correction to Enthalpy=                  0.193463
 Thermal correction to Gibbs Free Energy=         0.141345
 Sum of electronic and zero-point Energies=          -1259.313720
 Sum of electronic and thermal Energies=             -1259.301419
 Sum of electronic and thermal Enthalpies=           -1259.300475
 Sum of electronic and thermal Free Energies=        -1259.352593

                     E (Thermal)             CV                S
                      KCal/Mol        Cal/Mol-Kelvin    Cal/Mol-Kelvin
 Total                  120.807             48.578            109.693
 Electronic               0.000              0.000              0.000
 Translational            0.889              2.981             42.041
 Rotational               0.889              2.981             32.141
 Vibrational            119.030             42.616             35.510
 Vibration     1          0.595              1.978              4.836
 Vibration     2          0.599              1.965              3.992
 Vibration     3          0.601              1.957              3.695
 Vibration     4          0.626              1.878              2.426
 Vibration     5          0.631              1.861              2.279
 Vibration     6          0.647              1.810              1.958
 Vibration     7          0.670              1.742              1.645
 Vibration     8          0.684              1.699              1.496
 Vibration     9          0.702              1.647              1.342
 Vibration    10          0.710              1.623              1.278
 Vibration    11          0.731              1.564              1.141
 Vibration    12          0.746              1.524              1.060
 Vibration    13          0.766              1.470              0.962
 Vibration    14          0.811              1.355              0.787
 Vibration    15          0.818              1.337              0.764
 Vibration    16          0.871              1.215              0.620
 Vibration    17          0.894              1.164              0.568
 Vibration    18          0.904              1.142              0.546
 Vibration    19          0.949              1.049              0.464

                           ! Non-Optimized Parameters !
 Normal termination of Gaussian 16 at Thu May 18 09:52:06 2023.
