 Gaussian 16, Revision A.03,
 Gaussian 16:  ES64L-G16RevA.03 25-Dec-2016

 -----------------------------
 # opt freq b3lyp/6-31g(2df,p)
 -----------------------------

 -------------------
 Title Card Required
 -------------------
 Symbolic Z-matrix:
 Charge =  0 Multiplicity = 1

 SCF Done:  E(RB3LYP) =  -1861.50609850     A.U. after   25 cycles
 SCF Done:  E(RB3LYP) =  -1861.57199010     A.U. after   18 cycles
 SCF Done:  E(RB3LYP) =  -1861.66543121     A.U. after   16 cycles
 SCF Done:  E(RB3LYP) =  -1861.70410360     A.U. after   15 cycles
 SCF Done:  E(RB3LYP) =  -1861.74510302     A.U. after   15 cycles
 SCF Done:  E(RB3LYP) =  -1861.78069537     A.U. after   15 cycles
 SCF Done:  E(RB3LYP) =  -1861.79400175     A.U. after   14 cycles
 SCF Done:  E(RB3LYP) =  -1861.80392206     A.U. after   14 cycles
 SCF Done:  E(RB3LYP) =  -1861.80788778     A.U. after   14 cycles
 SCF Done:  E(RB3LYP) =  -1861.80944719     A.U. after   14 cycles
 SCF Done:  E(RB3LYP) =  -1861.81311886     A.U. after    9 cycles
 SCF Done:  E(RB3LYP) =  -1861.81314395     A.U. after   11 cycles
 SCF Done:  E(RB3LYP) =  -1861.81315272     A.U. after   11 cycles
 SCF Done:  E(RB3LYP) =  -1861.81315853     A.U. after    9 cycles
 SCF Done:  E(RB3LYP) =  -1861.81316361     A.U. after    9 cycles
 SCF Done:  E(RB3LYP) =  -1861.81316484     A.U. after    8 cycles
 SCF Done:  E(RB3LYP) =  -1861.81316523     A.U. after    7 cycles
 SCF Done:  E(RB3LYP) =  -1861.81316563     A.U. after    7 cycles
 SCF Done:  E(RB3LYP) =  -1861.81316598     A.U. after    7 cycles
 Optimization completed.
    -- Stationary point found.
 Normal termination of Gaussian 16 at Tue May 16 15:05:24 2023.

 ----------------------------------------------------------------------
 #N Geom=AllCheck Guess=TCheck SCRF=Check GenChk RB3LYP/6-31G(2df,p) Fr
 eq
 ----------------------------------------------------------------------

 Structure from the checkpoint file:  "SdC1CdCSC2dCdCCqSrdS12.chk"
 -------------------
 Title Card Required
 -------------------
 Charge =  0 Multiplicity = 1

                         Standard orientation:
 ---------------------------------------------------------------------
 Center     Atomic      Atomic             Coordinates (Angstroms)
 Number     Number       Type             X           Y           Z
 ---------------------------------------------------------------------
      1         16           0        2.667632    2.205770    0.234709
      2          6           0        1.918714    0.737949    0.119578
      3          6           0        2.460930   -0.459999    0.719743
      4          6           0        2.075000   -1.745870    0.531256
      5         16           0        0.679984   -2.345042   -0.308524
      6          6           0       -0.278302   -0.860473   -0.370630
      7          6           0       -1.549308   -0.830901    0.036962
      8          6           0       -2.773808   -1.380067    0.502327
      9          6           0       -2.749277   -0.075485    0.242364
     10         16           0       -3.541896    1.436303    0.177707
     11         16           0        0.512789    0.617789   -0.946834
     12          1           0        3.362217   -0.288251    1.300299
     13          1           0        2.706514   -2.547719    0.903556
     14          1           0       -3.326643   -2.244509    0.825042
     15          1           0       -2.461927    2.132444   -0.231434
 ---------------------------------------------------------------------

 SCF Done:  E(RB3LYP) =  -1861.81316598     A.U. after    1 cycles

 The electronic state is 1-A.
 Alpha  occ. eigenvalues --  -88.93997 -88.91205 -88.90176 -88.83755 -10.28537
 Alpha  occ. eigenvalues --  -10.26592 -10.25689 -10.25610 -10.23984 -10.23335
 Alpha  occ. eigenvalues --  -10.20467  -8.00441  -7.97298  -7.96261  -7.90300
 Alpha  occ. eigenvalues --   -5.96888  -5.96504  -5.96044  -5.93739  -5.93385
 Alpha  occ. eigenvalues --   -5.92981  -5.92729  -5.92347  -5.91909  -5.86647
 Alpha  occ. eigenvalues --   -5.86489  -5.85860  -0.95385  -0.87157  -0.81411
 Alpha  occ. eigenvalues --   -0.80400  -0.78768  -0.70310  -0.68288  -0.61430
 Alpha  occ. eigenvalues --   -0.59797  -0.55772  -0.52292  -0.48809  -0.47636
 Alpha  occ. eigenvalues --   -0.45091  -0.43653  -0.42653  -0.40557  -0.38486
 Alpha  occ. eigenvalues --   -0.37211  -0.36738  -0.35423  -0.32782  -0.31636
 Alpha  occ. eigenvalues --   -0.29884  -0.27236  -0.22664  -0.21577  -0.20395
 Alpha virt. eigenvalues --   -0.08488  -0.03962  -0.01572  -0.00016   0.02829
 Alpha virt. eigenvalues --    0.03510   0.03890   0.04787   0.06246   0.08409
 Alpha virt. eigenvalues --    0.09584   0.10033   0.13409   0.16130   0.17080

 Mulliken charges:
               1
     1  S   -0.353622
     2  C    0.209341
     3  C   -0.121513
     4  C   -0.086022
     5  S   -0.070092
     6  C   -0.156148
     7  C    0.305625
     8  C   -0.273482
     9  C    0.117274
    10  S   -0.139631
    11  S   -0.095079
    12  H    0.131794
    13  H    0.139292
    14  H    0.183342
    15  H    0.208921
 Sum of Mulliken charges =  -0.00000

 Dipole moment (field-independent basis, Debye):
    X=             -4.5362    Y=             -2.9985    Z=              1.2095  Tot=              5.5706
 Quadrupole moment (field-independent basis, Debye-Ang):
   XX=            -84.4949   YY=            -89.8798   ZZ=            -93.0002
   XY=             -7.5381   XZ=              0.7138   YZ=             -3.6275

  Exact polarizability: 199.672  19.325 191.998   6.681  -1.911  84.938
 Approx polarizability: 308.457  65.221 403.547  17.727   4.624 158.536

                      1                      2                      3
                      A                      A                      A
 Frequencies --     39.3652                66.2559                79.7184
 Red. masses --     16.8393                 6.5217                 7.9915
 Frc consts  --      0.0154                 0.0169                 0.0299
 IR Inten    --      0.6157                 3.3607                 0.2751

                      4                      5                      6
                      A                      A                      A
 Frequencies --    107.3151               195.2477               258.0298
 Red. masses --      8.6464                 9.6740                 3.0198
 Frc consts  --      0.0587                 0.2173                 0.1185
 IR Inten    --      0.6830                 0.5141                 0.9535

                      7                      8                      9
                      A                      A                      A
 Frequencies --    267.8679               281.6620               321.5501
 Red. masses --     13.0029                 2.9328                12.3488
 Frc consts  --      0.5497                 0.1371                 0.7523
 IR Inten    --      1.7483                 1.1499                 3.9533

                     10                     11                     12
                      A                      A                      A
 Frequencies --    339.2778               355.5570               421.4015
 Red. masses --      4.9266                 2.4822                 2.7015
 Frc consts  --      0.3341                 0.1849                 0.2826
 IR Inten    --      6.7803                 8.0362                 6.5034

                     13                     14                     15
                      A                      A                      A
 Frequencies --    459.1587               481.8919               548.6468
 Red. masses --      7.0057                 6.5205                10.5659
 Frc consts  --      0.8702                 0.8921                 1.8739
 IR Inten    --      6.4213                 2.0921                 2.1364

                     16                     17                     18
                      A                      A                      A
 Frequencies --    571.4320               592.0155               638.9587
 Red. masses --      8.2589                 4.9602                11.0823
 Frc consts  --      1.5889                 1.0243                 2.6658
 IR Inten    --      3.5118                 6.2154                 5.9418

                     19                     20                     21
                      A                      A                      A
 Frequencies --    679.4078               747.9640               752.4684
 Red. masses --      9.7624                 3.1561                 1.5151
 Frc consts  --      2.6550                 1.0403                 0.5054
 IR Inten    --     40.3759                36.3869                16.9300

                     22                     23                     24
                      A                      A                      A
 Frequencies --    782.7573               900.7738               934.5001
 Red. masses --      1.7527                 6.7202                 1.4597
 Frc consts  --      0.6327                 3.2126                 0.7511
 IR Inten    --     14.9115                 5.2307                16.9907

                     25                     26                     27
                      A                      A                      A
 Frequencies --    970.3932              1002.7587              1035.3569
 Red. masses --      1.2609                 1.6284                 4.7351
 Frc consts  --      0.6996                 0.9647                 2.9906
 IR Inten    --      3.7706                 3.6541               160.4159

                     28                     29                     30
                      A                      A                      A
 Frequencies --   1092.6148              1127.7286              1167.9303
 Red. masses --      3.6555                 4.0982                 3.1167
 Frc consts  --      2.5712                 3.0708                 2.5048
 IR Inten    --     43.0215                24.3992                78.1814

                     31                     32                     33
                      A                      A                      A
 Frequencies --   1252.1856              1385.7175              1561.5064
 Red. masses --      1.2951                 1.5572                 6.9713
 Frc consts  --      1.1965                 1.7618                10.0151
 IR Inten    --     26.5882                23.2956               248.5350

                     34                     35                     36
                      A                      A                      A
 Frequencies --   1577.2704              1860.1280              2663.4918
 Red. masses --      8.5498                 9.2466                 1.0387
 Frc consts  --     12.5320                18.8504                 4.3416
 IR Inten    --    231.8662               190.4290                 4.1913

                     37                     38                     39
                      A                      A                      A
 Frequencies --   3165.1068              3184.0312              3298.7313
 Red. masses --      1.0843                 1.0932                 1.1142
 Frc consts  --      6.3997                 6.5299                 7.1431
 IR Inten    --      1.5841                 3.2547                15.4565

 - Thermochemistry -
 -------------------
 Temperature   298.150 Kelvin.  Pressure   1.00000 Atm.
 Atom     1 has atomic number 16 and mass  31.97207

 Molecular mass:   215.91959 amu.
 Principal axes and moments of inertia in atomic units:
                           1         2         3
     Eigenvalues --  2015.275104006.751795644.88284
           X            0.99994  -0.00999   0.00458
           Y            0.01004   0.99989  -0.01094
           Z           -0.00447   0.01099   0.99993
 This molecule is an asymmetric top.
 Rotational symmetry number  1.
 Warning -- assumption of classical behavior for rotation
           may cause significant error
 Rotational temperatures (Kelvin)      0.04298     0.02162     0.01534
 Rotational constants (GHZ):           0.89553     0.45043     0.31971
 Zero-point vibrational energy     222315.1 (Joules/Mol)
                                   53.13457 (Kcal/Mol)
 Warning -- explicit consideration of  17 degrees of freedom as
           vibrations may cause significant error
 Vibrational temperatures:     56.64    95.33   114.70   154.40   280.92
          (Kelvin)            371.25   385.40   405.25   462.64   488.15
                              511.57   606.30   660.63   693.33   789.38
                              822.16   851.78   919.32   977.52  1076.15
                             1082.63  1126.21  1296.01  1344.54  1396.18
                             1442.75  1489.65  1572.03  1622.55  1680.39
                             1801.62  1993.74  2246.66  2269.34  2676.31
                             3832.17  4553.88  4581.11  4746.14

 Zero-point correction=                           0.084675 (Hartree/Particle)
 Thermal correction to Energy=                    0.095888
 Thermal correction to Enthalpy=                  0.096832
 Thermal correction to Gibbs Free Energy=         0.045656
 Sum of electronic and zero-point Energies=          -1861.728491
 Sum of electronic and thermal Energies=             -1861.717278
 Sum of electronic and thermal Enthalpies=           -1861.716334
 Sum of electronic and thermal Free Energies=        -1861.767510

                     E (Thermal)             CV                S
                      KCal/Mol        Cal/Mol-Kelvin    Cal/Mol-Kelvin
 Total                   60.171             40.231            107.710
 Electronic               0.000              0.000              0.000
 Translational            0.889              2.981             42.012
 Rotational               0.889              2.981             32.189
 Vibrational             58.393             34.269             33.509
 Vibration     1          0.594              1.981              5.291
 Vibration     2          0.598              1.970              4.262
 Vibration     3          0.600              1.963              3.898
 Vibration     4          0.606              1.943              3.317
 Vibration     5          0.636              1.846              2.177
 Vibration     6          0.667              1.749              1.675
 Vibration     7          0.673              1.732              1.610
 Vibration     8          0.681              1.708              1.524
 Vibration     9          0.707              1.632              1.302
 Vibration    10          0.719              1.597              1.216
 Vibration    11          0.731              1.564              1.141
 Vibration    12          0.784              1.424              0.887
 Vibration    13          0.817              1.341              0.769
 Vibration    14          0.838              1.290              0.705
 Vibration    15          0.904              1.143              0.547
 Vibration    16          0.928              1.093              0.501
 Vibration    17          0.949              1.049              0.464

                           ! Non-Optimized Parameters !
 Normal termination of Gaussian 16 at Tue May 16 15:34:42 2023.
