 Gaussian 16, Revision A.03,
 Gaussian 16:  ES64L-G16RevA.03 25-Dec-2016

 -----------------------------
 # opt freq b3lyp/6-31g(2df,p)
 -----------------------------

 -------------------
 Title Card Required
 -------------------
 Symbolic Z-matrix:
 Charge =  0 Multiplicity = 1

 SCF Done:  E(RB3LYP) =  -1675.89836923     A.U. after   40 cycles
 SCF Done:  E(RB3LYP) =  -1675.98294964     A.U. after   26 cycles
 SCF Done:  E(RB3LYP) =  -1676.05019307     A.U. after   22 cycles
 SCF Done:  E(RB3LYP) =  -1676.08709820     A.U. after   19 cycles
 SCF Done:  E(RB3LYP) =  -1676.11947589     A.U. after   17 cycles
 SCF Done:  E(RB3LYP) =  -1676.14438951     A.U. after   16 cycles
 SCF Done:  E(RB3LYP) =  -1676.16052967     A.U. after   15 cycles
 SCF Done:  E(RB3LYP) =  -1676.16155051     A.U. after   15 cycles
 SCF Done:  E(RB3LYP) =  -1676.16771094     A.U. after   15 cycles
 SCF Done:  E(RB3LYP) =  -1676.16955546     A.U. after   14 cycles
 SCF Done:  E(RB3LYP) =  -1676.21829547     A.U. after    7 cycles
 SCF Done:  E(RB3LYP) =  -1676.21829660     A.U. after    7 cycles
 SCF Done:  E(RB3LYP) =  -1676.21829854     A.U. after    8 cycles
 SCF Done:  E(RB3LYP) =  -1676.21830036     A.U. after    8 cycles
 SCF Done:  E(RB3LYP) =  -1676.21830193     A.U. after    9 cycles
 SCF Done:  E(RB3LYP) =  -1676.21830277     A.U. after    8 cycles
 SCF Done:  E(RB3LYP) =  -1676.21830371     A.U. after    8 cycles
 SCF Done:  E(RB3LYP) =  -1676.21830398     A.U. after    7 cycles
 SCF Done:  E(RB3LYP) =  -1676.21830407     A.U. after    7 cycles
 Optimization completed.
    -- Stationary point found.
 Normal termination of Gaussian 16 at Wed May 17 23:56:24 2023.

 ----------------------------------------------------------------------
 #N Geom=AllCheck Guess=TCheck SCRF=Check GenChk RB3LYP/6-31G(2df,p) Fr
 eq
 ----------------------------------------------------------------------

 Structure from the checkpoint file:  "SdC1CdCCdCC2dCCdCCCN[SH]2S1.chk"
 -------------------
 Title Card Required
 -------------------
 Charge =  0 Multiplicity = 1

                         Standard orientation:
 ---------------------------------------------------------------------
 Center     Atomic      Atomic             Coordinates (Angstroms)
 Number     Number       Type             X           Y           Z
 ---------------------------------------------------------------------
      1         16           0       -5.505425    0.432748    0.809902
      2          6           0       -4.236238   -0.210327    0.059073
      3          6           0       -2.774637   -0.295059    0.104149
      4          6           0       -1.918683    0.831615   -0.254610
      5          6           0       -0.642313    0.933532    0.156918
      6          6           0        0.221615    2.058476   -0.158497
      7          6           0        1.466547    2.171624    0.245257
      8          6           0        2.689137    2.345016    0.678491
      9          6           0        3.957677    1.927155    0.063556
     10          6           0        4.198649    0.923309   -0.791263
     11          6           0        3.242118   -0.102344   -1.320408
     12          6           0        3.687356   -1.537252   -0.965437
     13          7           0        3.736075   -1.852886    0.464309
     14         16           0        2.227887   -1.934888    1.289939
     15         16           0       -3.780007   -1.167894   -1.305269
     16          1           0       -2.349937   -1.022696    0.792316
     17          1           0       -2.367344    1.609111   -0.867686
     18          1           0       -0.206940    0.141893    0.762310
     19          1           0       -0.201990    2.848468   -0.779866
     20          1           0        2.796156    2.903717    1.610627
     21          1           0        4.806289    2.530788    0.378239
     22          1           0        5.231026    0.799976   -1.119720
     23          1           0        3.190022   -0.024918   -2.415920
     24          1           0        2.229474    0.067540   -0.948021
     25          1           0        4.697194   -1.715788   -1.359832
     26          1           0        3.019746   -2.259543   -1.443496
     27          1           0        4.336547   -1.203829    0.960229
     28          1           0        2.240586   -3.258438    1.564132
 ---------------------------------------------------------------------

 SCF Done:  E(RB3LYP) =  -1676.21830407     A.U. after    1 cycles

 The electronic state is 1-A.
 Alpha  occ. eigenvalues --  -88.90159 -88.89575 -88.86216 -14.35042 -10.28510
 Alpha  occ. eigenvalues --  -10.25945 -10.22257 -10.21467 -10.21419 -10.21286
 Alpha  occ. eigenvalues --  -10.21252 -10.20973 -10.20403 -10.20004 -10.19335
 Alpha  occ. eigenvalues --   -7.96508  -7.95783  -7.92711  -5.92873  -5.92584
 Alpha  occ. eigenvalues --   -5.92324  -5.92188  -5.91908  -5.91277  -5.89058
 Alpha  occ. eigenvalues --   -5.88920  -5.88259  -0.91935  -0.89910  -0.83904
 Alpha  occ. eigenvalues --   -0.81755  -0.78422  -0.75620  -0.74050  -0.71659
 Alpha  occ. eigenvalues --   -0.68795  -0.65238  -0.62415  -0.58791  -0.57278
 Alpha  occ. eigenvalues --   -0.54671  -0.52203  -0.50649  -0.48683  -0.47851
 Alpha  occ. eigenvalues --   -0.46401  -0.44859  -0.44315  -0.43682  -0.42818
 Alpha  occ. eigenvalues --   -0.42155  -0.39221  -0.38904  -0.38819  -0.37745
 Alpha  occ. eigenvalues --   -0.36881  -0.35891  -0.34865  -0.32828  -0.32074
 Alpha  occ. eigenvalues --   -0.31580  -0.25496  -0.25187  -0.24767  -0.23919
 Alpha  occ. eigenvalues --   -0.23578  -0.22124
 Alpha virt. eigenvalues --   -0.07617  -0.06458  -0.03664  -0.00234   0.00967
 Alpha virt. eigenvalues --    0.04738   0.05108   0.06151   0.06828   0.09248
 Alpha virt. eigenvalues --    0.10063   0.11476   0.11705   0.11914   0.12768

 Mulliken charges:
               1
     1  S   -0.277768
     2  C    0.240910
     3  C   -0.129250
     4  C   -0.049401
     5  C   -0.060313
     6  C   -0.342118
     7  C    0.371420
     8  C   -0.306783
     9  C   -0.047183
    10  C   -0.079498
    11  C   -0.266714
    12  C   -0.143001
    13  N   -0.285802
    14  S   -0.210356
    15  S   -0.117526
    16  H    0.148431
    17  H    0.111769
    18  H    0.126543
    19  H    0.122158
    20  H    0.128335
    21  H    0.098967
    22  H    0.093200
    23  H    0.111788
    24  H    0.132296
    25  H    0.107993
    26  H    0.121809
    27  H    0.248739
    28  H    0.151355
 Sum of Mulliken charges =  -0.00000

 Dipole moment (field-independent basis, Debye):
    X=              5.0173    Y=              0.4763    Z=             -0.8450  Tot=              5.1102
 Quadrupole moment (field-independent basis, Debye-Ang):
   XX=           -122.2944   YY=           -106.6875   ZZ=           -110.2547
   XY=              3.8909   XZ=              0.4449   YZ=             -0.1904

  Exact polarizability: 330.187  22.099 165.133  -4.854  23.620 147.865
 Approx polarizability: 461.306  26.425 277.419  -3.227  72.297 276.100

                      1                      2                      3
                      A                      A                      A
 Frequencies --     18.0465                22.3504                25.0202
 Red. masses --      9.7183                 7.5593                 8.5239
 Frc consts  --      0.0019                 0.0022                 0.0031
 IR Inten    --      0.3338                 0.0682                 0.1565

                      4                      5                      6
                      A                      A                      A
 Frequencies --     39.1656                56.4999                66.1916
 Red. masses --      7.1261                 5.5825                 7.0325
 Frc consts  --      0.0064                 0.0105                 0.0182
 IR Inten    --      0.5472                 0.3653                 0.7127

                      7                      8                      9
                      A                      A                      A
 Frequencies --    104.8325               124.4502               157.0583
 Red. masses --      4.2852                 4.1710                 4.6955
 Frc consts  --      0.0277                 0.0381                 0.0682
 IR Inten    --      2.0664                 0.5655                 1.3044

                     10                     11                     12
                      A                      A                      A
 Frequencies --    169.2769               185.1436               238.6139
 Red. masses --      2.9963                 3.0059                 2.8153
 Frc consts  --      0.0506                 0.0607                 0.0944
 IR Inten    --      0.9349                 7.3561                 7.8530

                     13                     14                     15
                      A                      A                      A
 Frequencies --    252.8142               280.0654               289.3360
 Red. masses --      5.6360                 2.9892                 1.7909
 Frc consts  --      0.2122                 0.1381                 0.0883
 IR Inten    --      3.4171                 1.0941                12.5362

                     16                     17                     18
                      A                      A                      A
 Frequencies --    328.5280               345.4130               374.7789
 Red. masses --      2.3974                 4.3031                 2.0195
 Frc consts  --      0.1525                 0.3025                 0.1671
 IR Inten    --     18.2782                16.1937                 5.1280

                     19                     20                     21
                      A                      A                      A
 Frequencies --    395.4212               438.2753               470.6008
 Red. masses --      7.5470                 3.3293                 3.6426
 Frc consts  --      0.6953                 0.3768                 0.4753
 IR Inten    --     25.8706                14.2618                29.2566

                     22                     23                     24
                      A                      A                      A
 Frequencies --    483.6688               529.9154               539.5673
 Red. masses --      3.5590                 2.8317                 3.9649
 Frc consts  --      0.4905                 0.4685                 0.6801
 IR Inten    --      0.5937                27.5790                 4.4563

                     25                     26                     27
                      A                      A                      A
 Frequencies --    570.9242               579.4966               670.1474
 Red. masses --      3.0433                 5.1492                 8.9368
 Frc consts  --      0.5845                 1.0188                 2.3647
 IR Inten    --     68.8089                61.8181                37.1615

                     28                     29                     30
                      A                      A                      A
 Frequencies --    719.7840               749.2116               797.5111
 Red. masses --      1.2995                 3.7195                 1.7739
 Frc consts  --      0.3967                 1.2301                 0.6647
 IR Inten    --     44.7096                13.2100                52.5053

                     31                     32                     33
                      A                      A                      A
 Frequencies --    825.0824               850.4312               862.3448
 Red. masses --      1.7863                 2.7481                 3.4555
 Frc consts  --      0.7165                 1.1710                 1.5140
 IR Inten    --     15.0934                32.9697               108.8078

                     34                     35                     36
                      A                      A                      A
 Frequencies --    892.8033               901.5462               924.3067
 Red. masses --      2.0905                 2.3728                 1.3454
 Frc consts  --      0.9818                 1.1363                 0.6772
 IR Inten    --     20.1230                12.5452                 5.8989

                     37                     38                     39
                      A                      A                      A
 Frequencies --    935.9897               981.0126              1004.0405
 Red. masses --      1.8670                 1.2792                 1.7010
 Frc consts  --      0.9637                 0.7253                 1.0103
 IR Inten    --     14.2984                24.6180                17.3124

                     40                     41                     42
                      A                      A                      A
 Frequencies --   1014.5871              1016.7872              1027.3048
 Red. masses --      1.5839                 1.3874                 1.1445
 Frc consts  --      0.9606                 0.8451                 0.7117
 IR Inten    --      9.8912                 2.2088                15.1780

                     43                     44                     45
                      A                      A                      A
 Frequencies --   1083.1220              1106.9799              1117.3761
 Red. masses --      2.3212                 2.9989                 2.5260
 Frc consts  --      1.6044                 2.1652                 1.8581
 IR Inten    --      8.0117                23.4564                 1.0065

                     46                     47                     48
                      A                      A                      A
 Frequencies --   1139.1886              1177.0033              1207.6169
 Red. masses --      3.8988                 1.5081                 1.1502
 Frc consts  --      2.9811                 1.2309                 0.9883
 IR Inten    --     69.9763                 1.3447                 0.3169

                     49                     50                     51
                      A                      A                      A
 Frequencies --   1231.2187              1249.4970              1285.4551
 Red. masses --      1.2367                 1.1766                 1.2319
 Frc consts  --      1.1046                 1.0823                 1.1993
 IR Inten    --     23.6896                 3.8586                 5.0990

                     52                     53                     54
                      A                      A                      A
 Frequencies --   1293.8671              1326.5203              1337.6940
 Red. masses --      1.1569                 1.3260                 1.4142
 Frc consts  --      1.1411                 1.3748                 1.4910
 IR Inten    --      7.1038                 1.2523               128.9626

                     55                     56                     57
                      A                      A                      A
 Frequencies --   1345.2527              1375.6318              1413.0528
 Red. masses --      1.3526                 1.2345                 4.5995
 Frc consts  --      1.4422                 1.3764                 5.4110
 IR Inten    --     35.8570                16.0439               158.2633

                     58                     59                     60
                      A                      A                      A
 Frequencies --   1436.3128              1451.5403              1470.0325
 Red. masses --      1.3958                 1.1323                 1.1074
 Frc consts  --      1.6966                 1.4056                 1.4100
 IR Inten    --     18.9840                12.3489                 4.6535

                     61                     62                     63
                      A                      A                      A
 Frequencies --   1472.8503              1478.4835              1673.3374
 Red. masses --      2.5941                 1.1830                 5.3791
 Frc consts  --      3.3156                 1.5236                 8.8741
 IR Inten    --      9.1318                 3.5241                56.4207

                     64                     65                     66
                      A                      A                      A
 Frequencies --   1697.7536              2019.2231              2608.3482
 Red. masses --      6.7011                11.0098                 1.0401
 Frc consts  --     11.3800                26.4482                 4.1693
 IR Inten    --      2.7911               103.1835                22.0131

                     67                     68                     69
                      A                      A                      A
 Frequencies --   3010.6686              3018.7125              3091.6821
 Red. masses --      1.0698                 1.0681                 1.0954
 Frc consts  --      5.7130                 5.7346                 6.1689
 IR Inten    --     11.0688                50.9201                10.9595

                     70                     71                     72
                      A                      A                      A
 Frequencies --   3096.5488              3106.9307              3113.0349
 Red. masses --      1.0834                 1.0878                 1.0859
 Frc consts  --      6.1205                 6.1870                 6.2000
 IR Inten    --      4.5471                 3.5580                 4.5657

                     73                     74                     75
                      A                      A                      A
 Frequencies --   3123.3585              3142.8410              3153.6315
 Red. masses --      1.0860                 1.0866                 1.0919
 Frc consts  --      6.2422                 6.3238                 6.3980
 IR Inten    --     13.2259                 0.8533                51.4941

                     76                     77                     78
                      A                      A                      A
 Frequencies --   3160.2170              3167.8500              3542.1273
 Red. masses --      1.0926                 1.0860                 1.0745
 Frc consts  --      6.4288                 6.4213                 7.9427
 IR Inten    --      1.0454                 9.3307                 8.9709

 - Thermochemistry -
 -------------------
 Temperature   298.150 Kelvin.  Pressure   1.00000 Atm.
 Atom     1 has atomic number 16 and mass  31.97207

 Molecular mass:   255.02101 amu.
 Principal axes and moments of inertia in atomic units:
                           1         2         3
     Eigenvalues --  2649.47701********************
           X            0.99999  -0.00187  -0.00429
           Y            0.00187   1.00000  -0.00073
           Z            0.00430   0.00072   0.99999
 This molecule is an asymmetric top.
 Rotational symmetry number  1.
 Warning -- assumption of classical behavior for rotation
           may cause significant error
 Rotational temperatures (Kelvin)      0.03269     0.00740     0.00670
 Rotational constants (GHZ):           0.68117     0.15424     0.13965
 Zero-point vibrational energy     556163.7 (Joules/Mol)
                                  132.92631 (Kcal/Mol)
 Warning -- explicit consideration of  26 degrees of freedom as
           vibrations may cause significant error
 Vibrational temperatures:     25.96    32.16    36.00    56.35    81.29
          (Kelvin)             95.23   150.83   179.06   225.97   243.55
                              266.38   343.31   363.74   402.95   416.29
                              472.68   496.97   539.22   568.92   630.58
                              677.09   695.89   762.43   776.32   821.43
                              833.77   964.19  1035.61  1077.95  1147.44
                             1187.11  1223.58  1240.72  1284.54  1297.12
                             1329.87  1346.68  1411.46  1444.59  1459.76
                             1462.93  1478.06  1558.37  1592.70  1607.65
                             1639.04  1693.45  1737.49  1771.45  1797.75
                             1849.48  1861.59  1908.57  1924.64  1935.52
                             1979.23  2033.07  2066.53  2088.44  2115.05
                             2119.10  2127.21  2407.56  2442.69  2905.21
                             3752.83  4331.68  4343.25  4448.24  4455.24
                             4470.18  4478.96  4493.82  4521.85  4537.37
                             4546.85  4557.83  5096.33

 Zero-point correction=                           0.211832 (Hartree/Particle)
 Thermal correction to Energy=                    0.229088
 Thermal correction to Enthalpy=                  0.230032
 Thermal correction to Gibbs Free Energy=         0.162180
 Sum of electronic and zero-point Energies=          -1676.006473
 Sum of electronic and thermal Energies=             -1675.989216
 Sum of electronic and thermal Enthalpies=           -1675.988272
 Sum of electronic and thermal Free Energies=        -1676.056124

                     E (Thermal)             CV                S
                      KCal/Mol        Cal/Mol-Kelvin    Cal/Mol-Kelvin
 Total                  143.755             60.882            142.807
 Electronic               0.000              0.000              0.000
 Translational            0.889              2.981             42.509
 Rotational               0.889              2.981             34.348
 Vibrational            141.977             54.920             65.950
 Vibration     1          0.593              1.986              6.838
 Vibration     2          0.593              1.985              6.414
 Vibration     3          0.593              1.985              6.190
 Vibration     4          0.594              1.981              5.301
 Vibration     5          0.596              1.975              4.576
 Vibration     6          0.598              1.970              4.264
 Vibration     7          0.605              1.945              3.362
 Vibration     8          0.610              1.929              3.030
 Vibration     9          0.621              1.895              2.585
 Vibration    10          0.625              1.880              2.443
 Vibration    11          0.631              1.860              2.276
 Vibration    12          0.657              1.781              1.813
 Vibration    13          0.664              1.758              1.711
 Vibration    14          0.680              1.710              1.533
 Vibration    15          0.686              1.694              1.478
 Vibration    16          0.712              1.618              1.267
 Vibration    17          0.724              1.585              1.187
 Vibration    18          0.746              1.524              1.060
 Vibration    19          0.762              1.480              0.980
 Vibration    20          0.798              1.387              0.832
 Vibration    21          0.828              1.315              0.736
 Vibration    22          0.840              1.286              0.700
 Vibration    23          0.885              1.184              0.587
 Vibration    24          0.895              1.163              0.566
 Vibration    25          0.927              1.094              0.502
 Vibration    26          0.936              1.076              0.486

 Optimization completed.
    -- Stationary point found.
 Normal termination of Gaussian 16 at Thu May 18 01:33:03 2023.
