 Gaussian 16, Revision A.03,
 Gaussian 16:  ES64L-G16RevA.03 25-Dec-2016

 -----------------------------
 # opt freq b3lyp/6-31g(2df,p)
 -----------------------------

 -------------------
 Title Card Required
 -------------------
 Symbolic Z-matrix:
 Charge =  0 Multiplicity = 1

 SCF Done:  E(RB3LYP) =  -1313.62990360     A.U. after   35 cycles
 SCF Done:  E(RB3LYP) =  -1313.77672723     A.U. after   25 cycles
 SCF Done:  E(RB3LYP) =  -1313.95614497     A.U. after   29 cycles
 SCF Done:  E(RB3LYP) =  -1314.09577477     A.U. after   43 cycles
 SCF Done:  E(RB3LYP) =  -1314.28969805     A.U. after   29 cycles
 SCF Done:  E(RB3LYP) =  -1314.30064633     A.U. after   33 cycles
 SCF Done:  E(RB3LYP) =  -1314.51642527     A.U. after   27 cycles
 SCF Done:  E(RB3LYP) =  -1314.61663426     A.U. after   26 cycles
 SCF Done:  E(RB3LYP) =  -1314.69982451     A.U. after   25 cycles
 SCF Done:  E(RB3LYP) =  -1314.79056573     A.U. after   24 cycles
 SCF Done:  E(RB3LYP) =  -1314.90513162     A.U. after   11 cycles
 SCF Done:  E(RB3LYP) =  -1314.90513794     A.U. after   10 cycles
 SCF Done:  E(RB3LYP) =  -1314.90514054     A.U. after   10 cycles
 SCF Done:  E(RB3LYP) =  -1314.90514227     A.U. after    9 cycles
 SCF Done:  E(RB3LYP) =  -1314.90514362     A.U. after    9 cycles
 SCF Done:  E(RB3LYP) =  -1314.90514453     A.U. after    9 cycles
 SCF Done:  E(RB3LYP) =  -1314.90514498     A.U. after    9 cycles
 SCF Done:  E(RB3LYP) =  -1314.90514523     A.U. after    8 cycles
 SCF Done:  E(RB3LYP) =  -1314.90514533     A.U. after    8 cycles
 Optimization completed.
    -- Stationary point found.
 Normal termination of Gaussian 16 at Fri May 19 08:46:41 2023.

 ----------------------------------------------------------------------
 #N Geom=AllCheck Guess=TCheck SCRF=Check GenChk RB3LYP/6-31G(2df,p) Fr
 eq
 ----------------------------------------------------------------------

 Structure from the checkpoint file:  "SdC1CdCCdCSCdC2CdCCdC2CN1.chk"
 -------------------
 Title Card Required
 -------------------
 Charge =  0 Multiplicity = 1

                         Standard orientation:
 ---------------------------------------------------------------------
 Center     Atomic      Atomic             Coordinates (Angstroms)
 Number     Number       Type             X           Y           Z
 ---------------------------------------------------------------------
      1         16           0       -5.099198   -0.213388   -1.130415
      2          6           0       -4.658894    0.768703    0.245796
      3          6           0       -3.599757   -0.215053    0.432950
      4          6           0       -2.248866    0.002152    0.073175
      5          6           0       -1.248095   -0.898301    0.362262
      6          6           0        0.102191   -0.716556    0.049030
      7         16           0        1.217365   -1.920926    0.436516
      8          6           0        2.816614   -1.478779    0.233980
      9          6           0        3.517155   -0.284621   -0.068024
     10          6           0        4.784011   -0.299450   -0.624812
     11          6           0        5.267113    1.047740   -0.811314
     12          6           0        4.334327    1.918811   -0.348803
     13          6           0        3.197564    1.155824    0.178061
     14          6           0        2.192717    1.705315    0.875728
     15          7           0       -4.976742    1.831171    0.851090
     16          1           0       -3.837954   -1.082355    1.041709
     17          1           0       -2.007921    0.924626   -0.447798
     18          1           0       -1.527864   -1.817207    0.877273
     19          1           0        0.449343    0.176346   -0.453801
     20          1           0        3.411123   -2.388413    0.241766
     21          1           0        5.325817   -1.195142   -0.900587
     22          1           0        6.225810    1.300697   -1.243888
     23          1           0        4.395443    2.997563   -0.318887
     24          1           0        2.163347    2.778533    1.035363
     25          1           0        1.394613    1.127908    1.323473
     26          1           0       -5.781714    2.273567    0.401954
 ---------------------------------------------------------------------

 SCF Done:  E(RB3LYP) =  -1314.90514533     A.U. after    1 cycles

 The electronic state is 1-A.
 Alpha  occ. eigenvalues --  -88.95249 -88.84352 -14.29788 -10.24389 -10.24231
 Alpha  occ. eigenvalues --  -10.23078 -10.22688 -10.22623 -10.22369 -10.22338
 Alpha  occ. eigenvalues --  -10.21688 -10.21296 -10.20876 -10.20548 -10.19491
 Alpha  occ. eigenvalues --   -8.01171  -7.90849  -5.97507  -5.97165  -5.97100
 Alpha  occ. eigenvalues --   -5.87247  -5.86891  -5.86496  -0.89793  -0.89710
 Alpha  occ. eigenvalues --   -0.86853  -0.82183  -0.78691  -0.78122  -0.75204
 Alpha  occ. eigenvalues --   -0.70505  -0.66205  -0.64352  -0.60273  -0.57848
 Alpha  occ. eigenvalues --   -0.56873  -0.54566  -0.52803  -0.52351  -0.49131
 Alpha  occ. eigenvalues --   -0.46697  -0.46080  -0.45072  -0.43189  -0.43012
 Alpha  occ. eigenvalues --   -0.40951  -0.40598  -0.39901  -0.38499  -0.37892
 Alpha  occ. eigenvalues --   -0.37319  -0.36316  -0.35608  -0.33354  -0.31850
 Alpha  occ. eigenvalues --   -0.28557  -0.28157  -0.24717  -0.24190  -0.21645
 Alpha  occ. eigenvalues --   -0.17798
 Alpha virt. eigenvalues --   -0.11670  -0.07086  -0.02797   0.01502   0.04032
 Alpha virt. eigenvalues --    0.05650   0.05825   0.06130   0.08063   0.08760
 Alpha virt. eigenvalues --    0.10016   0.10402   0.11187   0.11615   0.12876

 Mulliken charges:
               1
     1  S   -0.315760
     2  C    0.281113
     3  C   -0.082624
     4  C   -0.074821
     5  C   -0.037205
     6  C   -0.181703
     7  S    0.087483
     8  C   -0.245644
     9  C    0.188792
    10  C   -0.168168
    11  C   -0.109437
    12  C   -0.159446
    13  C    0.227439
    14  C   -0.394158
    15  N   -0.505381
    16  H    0.140043
    17  H    0.102798
    18  H    0.106169
    19  H    0.139075
    20  H    0.137826
    21  H    0.114063
    22  H    0.115706
    23  H    0.116728
    24  H    0.136974
    25  H    0.151256
    26  H    0.228881
 Sum of Mulliken charges =  -0.00000

 Dipole moment (field-independent basis, Debye):
    X=              7.7999    Y=             -0.6260    Z=              0.4728  Tot=              7.8393
 Quadrupole moment (field-independent basis, Debye-Ang):
   XX=           -110.5922   YY=            -94.7252   ZZ=           -106.6448
   XY=              3.0385   XZ=             -4.8114   YZ=             -4.0774

  Exact polarizability: 646.126   0.999 181.509   4.774   4.553 115.010
 Approx polarizability:1705.794 -15.134 332.521  43.227  11.764 232.475

                      1                      2                      3
                      A                      A                      A
 Frequencies --     25.9170                30.0418                38.4582
 Red. masses --      6.3807                 6.4620                 5.6471
 Frc consts  --      0.0025                 0.0034                 0.0049
 IR Inten    --      1.1550                 1.3922                 1.0086

                      4                      5                      6
                      A                      A                      A
 Frequencies --     72.3862                85.9690               119.8101
 Red. masses --      7.0302                 7.2255                 6.7126
 Frc consts  --      0.0217                 0.0315                 0.0568
 IR Inten    --      4.3756               133.7331               398.9918

                      7                      8                      9
                      A                      A                      A
 Frequencies --    131.2635               174.7893               184.6400
 Red. masses --      4.0180                 4.4679                 6.5976
 Frc consts  --      0.0408                 0.0804                 0.1325
 IR Inten    --      5.7600                30.7309                 0.0524

                     10                     11                     12
                      A                      A                      A
 Frequencies --    217.8540               243.2587               252.0673
 Red. masses --      4.8157                 3.1796                 2.6689
 Frc consts  --      0.1347                 0.1109                 0.0999
 IR Inten    --     99.9623                28.1902                10.9939

                     13                     14                     15
                      A                      A                      A
 Frequencies --    327.6515               339.7599               361.7644
 Red. masses --      4.4414                 3.5513                 4.4398
 Frc consts  --      0.2809                 0.2415                 0.3423
 IR Inten    --     71.7061                28.1965                40.6815

                     16                     17                     18
                      A                      A                      A
 Frequencies --    399.3180               403.2112               453.5806
 Red. masses --      4.1445                 3.5614                 4.6120
 Frc consts  --      0.3894                 0.3411                 0.5590
 IR Inten    --     36.5729                 9.8136                17.7909

                     19                     20                     21
                      A                      A                      A
 Frequencies --    496.7209               506.4199               605.9734
 Red. masses --      4.9261                 1.9118                 6.4190
 Frc consts  --      0.7161                 0.2889                 1.3887
 IR Inten    --      9.4345                 1.8040                 3.3425

                     22                     23                     24
                      A                      A                      A
 Frequencies --    660.8516               670.0632               703.6311
 Red. masses --      1.8815                 4.2615                 4.4764
 Frc consts  --      0.4841                 1.1273                 1.3058
 IR Inten    --     22.6861                10.8631                 3.5059

                     25                     26                     27
                      A                      A                      A
 Frequencies --    718.6410               739.0867               755.9459
 Red. masses --      1.3014                 6.4386                 1.5603
 Frc consts  --      0.3960                 2.0722                 0.5254
 IR Inten    --     23.3742                41.7132                20.9329

                     28                     29                     30
                      A                      A                      A
 Frequencies --    776.0964               800.4723               808.5467
 Red. masses --      1.5441                 2.3752                 2.1405
 Frc consts  --      0.5480                 0.8967                 0.8245
 IR Inten    --     25.5218                40.1860                31.4570

                     31                     32                     33
                      A                      A                      A
 Frequencies --    856.5292               862.6666               870.7561
 Red. masses --      1.4166                 1.9899                 1.5193
 Frc consts  --      0.6123                 0.8725                 0.6787
 IR Inten    --     27.0566                46.3648                48.0197

                     34                     35                     36
                      A                      A                      A
 Frequencies --    881.3401               908.0125               943.8803
 Red. masses --      2.0427                 1.2897                 1.3556
 Frc consts  --      0.9349                 0.6265                 0.7116
 IR Inten    --    127.0588                14.6797                 0.4735

                     37                     38                     39
                      A                      A                      A
 Frequencies --    956.0492               986.5572               994.7055
 Red. masses --      1.8033                 3.0662                 1.3778
 Frc consts  --      0.9711                 1.7583                 0.8032
 IR Inten    --      6.1275                44.4452                26.8068

                     40                     41                     42
                      A                      A                      A
 Frequencies --   1006.2302              1020.7057              1040.3400
 Red. masses --      1.3365                 2.1958                 1.6660
 Frc consts  --      0.7973                 1.3478                 1.0624
 IR Inten    --     39.8032                 1.6534                14.7379

                     43                     44                     45
                      A                      A                      A
 Frequencies --   1110.3930              1192.3757              1216.5676
 Red. masses --      1.2026                 1.2686                 1.9307
 Frc consts  --      0.8736                 1.0627                 1.6836
 IR Inten    --      7.3885                43.6113                21.7736

                     46                     47                     48
                      A                      A                      A
 Frequencies --   1221.9022              1231.7215              1246.9529
 Red. masses --      2.2643                 1.4573                 1.6962
 Frc consts  --      1.9919                 1.3026                 1.5540
 IR Inten    --    250.9851               288.2661                14.1596

                     49                     50                     51
                      A                      A                      A
 Frequencies --   1276.4874              1290.1776              1302.4605
 Red. masses --      1.7024                 1.7391                 1.4368
 Frc consts  --      1.6343                 1.7056                 1.4360
 IR Inten    --      2.3835                55.9679                29.8271

                     52                     53                     54
                      A                      A                      A
 Frequencies --   1359.6778              1366.0575              1401.4627
 Red. masses --      2.0506                 2.1293                 2.9538
 Frc consts  --      2.2336                 2.3411                 3.4182
 IR Inten    --      2.4167                43.5755                11.6623

                     55                     56                     57
                      A                      A                      A
 Frequencies --   1447.2282              1461.1256              1472.6801
 Red. masses --      2.8578                 2.3455                 1.6732
 Frc consts  --      3.5266                 2.9502                 2.1381
 IR Inten    --     24.6429                66.5527                31.3124

                     58                     59                     60
                      A                      A                      A
 Frequencies --   1579.9413              1586.7123              1692.4086
 Red. masses --      4.0319                 4.2710                 5.5987
 Frc consts  --      5.9298                 6.3355                 9.4482
 IR Inten    --    255.2266               311.9391                 3.2265

                     61                     62                     63
                      A                      A                      A
 Frequencies --   1765.9506              3132.3105              3160.5556
 Red. masses --      9.3499                 1.0877                 1.0626
 Frc consts  --     17.1796                 6.2879                 6.2536
 IR Inten    --    350.0164                10.2446                 1.5059

                     64                     65                     66
                      A                      A                      A
 Frequencies --   3162.5007              3166.2613              3175.2428
 Red. masses --      1.0848                 1.0884                 1.0867
 Frc consts  --      6.3926                 6.4286                 6.4552
 IR Inten    --      3.9842                 1.4221                 8.4944

                     67                     68                     69
                      A                      A                      A
 Frequencies --   3213.1075              3215.4711              3225.1743
 Red. masses --      1.0891                 1.0884                 1.0911
 Frc consts  --      6.6249                 6.6305                 6.6867
 IR Inten    --     19.4080                 1.5473                11.3121

                     70                     71                     72
                      A                      A                      A
 Frequencies --   3244.3601              3255.2091              3450.0466
 Red. masses --      1.1043                 1.1134                 1.0739
 Frc consts  --      6.8487                 6.9510                 7.5315
 IR Inten    --      6.6705                 1.5443                 0.1964

 - Thermochemistry -
 -------------------
 Temperature   298.150 Kelvin.  Pressure   1.00000 Atm.
 Atom     1 has atomic number 16 and mass  31.97207

 Molecular mass:   233.03329 amu.
 Principal axes and moments of inertia in atomic units:
                           1         2         3
     Eigenvalues --  1634.68607********************
           X            0.99998   0.00235  -0.00513
           Y           -0.00235   1.00000  -0.00011
           Z            0.00513   0.00012   0.99999
 This molecule is an asymmetric top.
 Rotational symmetry number  1.
 Warning -- assumption of classical behavior for rotation
           may cause significant error
 Rotational temperatures (Kelvin)      0.05299     0.00750     0.00693
 Rotational constants (GHZ):           1.10403     0.15636     0.14430
 Zero-point vibrational energy     508738.8 (Joules/Mol)
                                  121.59149 (Kcal/Mol)
 Warning -- explicit consideration of  21 degrees of freedom as
           vibrations may cause significant error
 Vibrational temperatures:     37.29    43.22    55.33   104.15   123.69
          (Kelvin)            172.38   188.86   251.48   265.66   313.44
                              350.00   362.67   471.42   488.84   520.50
                              574.53   580.13   652.60   714.67   728.63
                              871.86   950.82   964.07  1012.37  1033.96
                             1063.38  1087.64  1116.63  1151.70  1163.32
                             1232.35  1241.18  1252.82  1268.05  1306.43
                             1358.03  1375.54  1419.44  1431.16  1447.74
                             1468.57  1496.82  1597.61  1715.56  1750.37
                             1758.04  1772.17  1794.09  1836.58  1856.28
                             1873.95  1956.27  1965.45  2016.39  2082.24
                             2102.23  2118.86  2273.18  2282.93  2435.00
                             2540.81  4506.70  4547.33  4550.13  4555.54
                             4568.47  4622.94  4626.35  4640.31  4667.91
                             4683.52  4963.85

 Zero-point correction=                           0.193768 (Hartree/Particle)
 Thermal correction to Energy=                    0.209089
 Thermal correction to Enthalpy=                  0.210033
 Thermal correction to Gibbs Free Energy=         0.148389
 Sum of electronic and zero-point Energies=          -1314.711377
 Sum of electronic and thermal Energies=             -1314.696056
 Sum of electronic and thermal Enthalpies=           -1314.695112
 Sum of electronic and thermal Free Energies=        -1314.756756

                     E (Thermal)             CV                S
                      KCal/Mol        Cal/Mol-Kelvin    Cal/Mol-Kelvin
 Total                  131.205             56.059            129.741
 Electronic               0.000              0.000              0.000
 Translational            0.889              2.981             42.240
 Rotational               0.889              2.981             33.822
 Vibrational            129.428             50.097             53.679
 Vibration     1          0.593              1.985              6.120
 Vibration     2          0.594              1.984              5.827
 Vibration     3          0.594              1.982              5.337
 Vibration     4          0.598              1.967              4.087
 Vibration     5          0.601              1.959              3.750
 Vibration     6          0.609              1.933              3.103
 Vibration     7          0.612              1.922              2.927
 Vibration     8          0.627              1.873              2.383
 Vibration     9          0.631              1.861              2.281
 Vibration    10          0.646              1.814              1.977
 Vibration    11          0.659              1.774              1.779
 Vibration    12          0.664              1.759              1.716
 Vibration    13          0.711              1.620              1.272
 Vibration    14          0.720              1.596              1.213
 Vibration    15          0.736              1.551              1.115
 Vibration    16          0.765              1.472              0.965
 Vibration    17          0.769              1.463              0.951
 Vibration    18          0.812              1.353              0.785
 Vibration    19          0.852              1.257              0.666
 Vibration    20          0.862              1.236              0.642
 Vibration    21          0.965              1.019              0.439

 Optimization completed.
    -- Stationary point found.
 Normal termination of Gaussian 16 at Fri May 19 10:12:33 2023.
