 Gaussian 16, Revision A.03,
 Gaussian 16:  ES64L-G16RevA.03 25-Dec-2016

 -----------------------------
 # opt freq b3lyp/6-31g(2df,p)
 -----------------------------

 -------------------
 Title Card Required
 -------------------
 Symbolic Z-matrix:
 Charge =  0 Multiplicity = 2

 SCF Done:  E(UB3LYP) =  -1104.12424666     A.U. after   26 cycles
 SCF Done:  E(UB3LYP) =  -1104.13263042     A.U. after   21 cycles
 SCF Done:  E(UB3LYP) =  -1104.13328265     A.U. after   18 cycles
 SCF Done:  E(UB3LYP) =  -1104.13332365     A.U. after   15 cycles
 SCF Done:  E(UB3LYP) =  -1104.13327675     A.U. after   16 cycles
 SCF Done:  E(UB3LYP) =  -1104.13339176     A.U. after   16 cycles
 SCF Done:  E(UB3LYP) =  -1104.13346732     A.U. after   17 cycles
 SCF Done:  E(UB3LYP) =  -1104.09750644     A.U. after   28 cycles
 SCF Done:  E(UB3LYP) =  -1104.13375566     A.U. after   19 cycles
 SCF Done:  E(UB3LYP) =  -1104.13387100     A.U. after   17 cycles
 SCF Done:  E(UB3LYP) =  -1104.13391340     A.U. after   18 cycles
 SCF Done:  E(UB3LYP) =  -1104.13396862     A.U. after   18 cycles
 SCF Done:  E(UB3LYP) =  -1104.13398035     A.U. after   16 cycles
 SCF Done:  E(UB3LYP) =  -1104.13398166     A.U. after   12 cycles
 SCF Done:  E(UB3LYP) =  -1104.13398196     A.U. after   12 cycles
 Optimization completed.
    -- Stationary point found.
 Normal termination of Gaussian 16 at Wed May 17 01:47:06 2023.

 ----------------------------------------------------------------------
 #N Geom=AllCheck Guess=TCheck SCRF=Check GenChk UB3LYP/6-31G(2df,p) Fr
 eq
 ----------------------------------------------------------------------

 Structure from the checkpoint file:  "SdC1[C]dC2CdCCdC2CS1.chk"
 -------------------
 Title Card Required
 -------------------
 Charge =  0 Multiplicity = 2

                         Standard orientation:
 ---------------------------------------------------------------------
 Center     Atomic      Atomic             Coordinates (Angstroms)
 Number     Number       Type             X           Y           Z
 ---------------------------------------------------------------------
      1         16           0       -2.975896   -0.986131   -0.009548
      2          6           0       -1.470647   -0.313610    0.034511
      3          6           0       -0.290990   -1.092160    0.143236
      4          6           0        1.007371   -0.793358    0.106301
      5          6           0        2.204773   -1.618061    0.004729
      6          6           0        3.257576   -0.776667   -0.133353
      7          6           0        2.789389    0.619459   -0.096673
      8          6           0        1.446853    0.628576    0.057253
      9          6           0        0.499459    1.757577    0.282628
     10         16           0       -1.265056    1.431020   -0.178040
     11          1           0        2.205852   -2.697144   -0.006253
     12          1           0        4.292115   -1.064517   -0.266708
     13          1           0        3.435553    1.484912   -0.170200
     14          1           0        0.781590    2.646528   -0.288319
     15          1           0        0.477418    2.041452    1.341103
 ---------------------------------------------------------------------

 SCF Done:  E(UB3LYP) =  -1104.13398196     A.U. after    1 cycles

 The electronic state is 2-A.
 Alpha  occ. eigenvalues --  -88.91195 -88.86175 -10.28919 -10.24649 -10.24609
 Alpha  occ. eigenvalues --  -10.22984 -10.21780 -10.20867 -10.20531 -10.19886
 Alpha  occ. eigenvalues --   -7.97428  -7.92667  -5.93904  -5.93521  -5.93047
 Alpha  occ. eigenvalues --   -5.89018  -5.88910  -5.88205  -0.90340  -0.85651
 Alpha  occ. eigenvalues --   -0.79964  -0.76550  -0.72725  -0.67723  -0.64524
 Alpha  occ. eigenvalues --   -0.58054  -0.56285  -0.52615  -0.47985  -0.46173
 Alpha  occ. eigenvalues --   -0.44616  -0.42409  -0.40915  -0.39755  -0.39272
 Alpha  occ. eigenvalues --   -0.38446  -0.36806  -0.34329  -0.27141  -0.25617
 Alpha  occ. eigenvalues --   -0.24785  -0.23445  -0.23082
 Alpha virt. eigenvalues --   -0.12424  -0.03217   0.02471   0.04031   0.05272
 Alpha virt. eigenvalues --    0.08517   0.09556   0.11110   0.11251   0.14438
 Alpha virt. eigenvalues --    0.15487   0.15558   0.18625   0.20113   0.22495

  Beta  occ. eigenvalues --  -88.91151 -88.86128 -10.28947 -10.24606 -10.23146
  Beta  occ. eigenvalues --  -10.23044 -10.21615 -10.20914 -10.20569 -10.19808
  Beta  occ. eigenvalues --   -7.97386  -7.92620  -5.93815  -5.93438  -5.93024
  Beta  occ. eigenvalues --   -5.88959  -5.88820  -5.88145  -0.89865  -0.85218
  Beta  occ. eigenvalues --   -0.79425  -0.75785  -0.72486  -0.67423  -0.63677
  Beta  occ. eigenvalues --   -0.57554  -0.55894  -0.52350  -0.47723  -0.45948
  Beta  occ. eigenvalues --   -0.44078  -0.42129  -0.39905  -0.39175  -0.38803
  Beta  occ. eigenvalues --   -0.38156  -0.36689  -0.34098  -0.26726  -0.24807
  Beta  occ. eigenvalues --   -0.23355  -0.22847
  Beta virt. eigenvalues --   -0.12175  -0.10688  -0.02542   0.03018   0.04184
  Beta virt. eigenvalues --    0.05115   0.08847   0.09858   0.11218   0.11488
  Beta virt. eigenvalues --    0.14523   0.15536   0.15601   0.19180   0.20424

 Mulliken charges and spin densities:
               1          2
     1  S   -0.268880   0.070383
     2  C    0.150766  -0.046824
     3  C   -0.134650   0.952504
     4  C    0.271308  -0.104563
     5  C   -0.203656   0.035371
     6  C   -0.085943  -0.034880
     7  C   -0.229337  -0.029580
     8  C    0.219481   0.075312
     9  C   -0.370132   0.000989
    10  S   -0.018936   0.069342
    11  H    0.121084   0.001928
    12  H    0.116570   0.001240
    13  H    0.111367   0.007492
    14  H    0.157155   0.001084
    15  H    0.163804   0.000202
 Sum of Mulliken charges =  -0.00000   1.00000

 Dipole moment (field-independent basis, Debye):
    X=              4.2942    Y=              1.6742    Z=              0.3701  Tot=              4.6239
 Quadrupole moment (field-independent basis, Debye-Ang):
   XX=            -73.0082   YY=            -67.0058   ZZ=            -72.3711
   XY=             -0.5513   XZ=             -0.6386   YZ=              0.8526

  Exact polarizability: 216.465  15.202 121.915  -2.658  -0.930  57.447
 Approx polarizability: 439.159  68.241 229.964  -7.753  -5.267 101.402

                      1                      2                      3
                      A                      A                      A
 Frequencies --     64.1163                92.0346               196.2477
 Red. masses --      7.2503                 3.8318                11.7453
 Frc consts  --      0.0176                 0.0191                 0.2665
 IR Inten    --      0.1693                 0.9418                 2.3416

                      4                      5                      6
                      A                      A                      A
 Frequencies --    220.1319               264.5992               307.3017
 Red. masses --      3.9704                 4.2196                 7.3316
 Frc consts  --      0.1134                 0.1741                 0.4079
 IR Inten    --      1.1604                 3.0801                 0.9144

                      7                      8                      9
                      A                      A                      A
 Frequencies --    383.8098               406.3653               514.0007
 Red. masses --      9.8047                 7.9173                 3.2998
 Frc consts  --      0.8510                 0.7703                 0.5136
 IR Inten    --      0.3965                 0.1111                 0.3411

                     10                     11                     12
                      A                      A                      A
 Frequencies --    570.5964               583.7712               661.4377
 Red. masses --      6.6668                 7.0652                 3.2324
 Frc consts  --      1.2789                 1.4186                 0.8332
 IR Inten    --      4.9505                12.0246                 6.8119

                     13                     14                     15
                      A                      A                      A
 Frequencies --    699.3409               712.9198               773.0229
 Red. masses --      7.1561                 4.2655                 5.1059
 Frc consts  --      2.0621                 1.2773                 1.7976
 IR Inten    --      1.1605                 6.4228                 7.7626

                     16                     17                     18
                      A                      A                      A
 Frequencies --    781.8137               810.5222               839.7084
 Red. masses --      1.7151                 4.4927                 1.4301
 Frc consts  --      0.6177                 1.7389                 0.5941
 IR Inten    --     33.5069                20.1983                 9.8072

                     19                     20                     21
                      A                      A                      A
 Frequencies --    897.4054               936.5484               976.2909
 Red. masses --      1.6219                 1.3593                 7.8362
 Frc consts  --      0.7696                 0.7025                 4.4006
 IR Inten    --      6.0331                 0.2819               117.2954

                     22                     23                     24
                      A                      A                      A
 Frequencies --    997.9309              1071.7199              1126.6807
 Red. masses --      1.9626                 3.0445                 1.4310
 Frc consts  --      1.1516                 2.0603                 1.0703
 IR Inten    --      7.1894                 2.1873                 2.9449

                     25                     26                     27
                      A                      A                      A
 Frequencies --   1158.6861              1219.2890              1223.0110
 Red. masses --      1.1213                 1.5070                 3.7688
 Frc consts  --      0.8870                 1.3200                 3.3213
 IR Inten    --      2.6989                20.0808                32.0524

                     28                     29                     30
                      A                      A                      A
 Frequencies --   1253.9752              1295.9100              1369.4015
 Red. masses --      3.6787                 1.7358                 1.9694
 Frc consts  --      3.4082                 1.7175                 2.1760
 IR Inten    --     76.2258                 8.8446                 7.6930

                     31                     32                     33
                      A                      A                      A
 Frequencies --   1459.7744              1537.5688              1632.1502
 Red. masses --      1.0892                 6.4108                 6.5333
 Frc consts  --      1.3675                 8.9296                10.2542
 IR Inten    --      1.7004                31.4550                11.7151

                     34                     35                     36
                      A                      A                      A
 Frequencies --   1670.2263              3031.5015              3092.3064
 Red. masses --     11.3286                 1.0641                 1.0981
 Frc consts  --     18.6199                 5.7616                 6.1869
 IR Inten    --      3.9226                 5.9329                 2.6612

                     37                     38                     39
                      A                      A                      A
 Frequencies --   3211.9913              3226.6633              3259.0732
 Red. masses --      1.0917                 1.0932                 1.1014
 Frc consts  --      6.6358                 6.7060                 6.8928
 IR Inten    --      5.8662                 6.1308                 4.2124

 - Thermochemistry -
 -------------------
 Temperature   298.150 Kelvin.  Pressure   1.00000 Atm.
 Atom     1 has atomic number 16 and mass  31.97207

 Molecular mass:   164.98327 amu.
 Principal axes and moments of inertia in atomic units:
                           1         2         3
     Eigenvalues --   826.064372574.079883366.49926
           X            0.99999  -0.00440  -0.00181
           Y            0.00441   0.99995   0.00907
           Z            0.00177  -0.00908   0.99996
 This molecule is an asymmetric top.
 Rotational symmetry number  1.
 Warning -- assumption of classical behavior for rotation
           may cause significant error
 Rotational temperatures (Kelvin)      0.10485     0.03365     0.02573
 Rotational constants (GHZ):           2.18475     0.70112     0.53609
 Zero-point vibrational energy     266347.6 (Joules/Mol)
                                   63.65861 (Kcal/Mol)
 Warning -- explicit consideration of  11 degrees of freedom as
           vibrations may cause significant error
 Vibrational temperatures:     92.25   132.42   282.36   316.72   380.70
          (Kelvin)            442.14   552.22   584.67   739.53   820.96
                              839.92   951.66  1006.20  1025.73  1112.21
                             1124.86  1166.16  1208.15  1291.17  1347.48
                             1404.66  1435.80  1541.97  1621.04  1667.09
                             1754.28  1759.64  1804.19  1864.53  1970.26
                             2100.29  2212.22  2348.30  2403.08  4361.65
                             4449.14  4621.34  4642.45  4689.08

 Zero-point correction=                           0.101446 (Hartree/Particle)
 Thermal correction to Energy=                    0.109989
 Thermal correction to Enthalpy=                  0.110933
 Thermal correction to Gibbs Free Energy=         0.066179
 Sum of electronic and zero-point Energies=          -1104.032536
 Sum of electronic and thermal Energies=             -1104.023993
 Sum of electronic and thermal Enthalpies=           -1104.023049
 Sum of electronic and thermal Free Energies=        -1104.067803

                     E (Thermal)             CV                S
                      KCal/Mol        Cal/Mol-Kelvin    Cal/Mol-Kelvin
 Total                   69.019             32.019             94.193
 Electronic               0.000              0.000              1.377
 Translational            0.889              2.981             41.210
 Rotational               0.889              2.981             30.349
 Vibrational             67.242             26.057             21.256
 Vibration     1          0.597              1.971              4.326
 Vibration     2          0.602              1.955              3.616
 Vibration     3          0.636              1.845              2.168
 Vibration     4          0.647              1.810              1.958
 Vibration     5          0.671              1.738              1.631
 Vibration     6          0.697              1.660              1.377
 Vibration     7          0.753              1.505              1.024
 Vibration     8          0.771              1.456              0.940
 Vibration     9          0.869              1.219              0.624
 Vibration    10          0.927              1.095              0.503
 Vibration    11          0.941              1.066              0.478

                           ! Non-Optimized Parameters !
 Normal termination of Gaussian 16 at Wed May 17 02:49:46 2023.
