 Gaussian 16, Revision A.03,
 Gaussian 16:  ES64L-G16RevA.03 25-Dec-2016

 -----------------------------
 # opt freq b3lyp/6-31g(2df,p)
 -----------------------------

 -------------------
 Title Card Required
 -------------------
 Symbolic Z-matrix:
 Charge =  0 Multiplicity = 1

 SCF Done:  E(RB3LYP) =  -898.280510024     A.U. after   25 cycles
 SCF Done:  E(RB3LYP) =  -898.421639801     A.U. after   19 cycles
 SCF Done:  E(RB3LYP) =  -898.638589448     A.U. after   19 cycles
 SCF Done:  E(RB3LYP) =  -898.807717304     A.U. after   18 cycles
 SCF Done:  E(RB3LYP) =  -898.895196574     A.U. after   18 cycles
 SCF Done:  E(RB3LYP) =  -898.961191117     A.U. after   19 cycles
 SCF Done:  E(RB3LYP) =  -899.003390252     A.U. after   18 cycles
 SCF Done:  E(RB3LYP) =  -899.073234954     A.U. after   18 cycles
 SCF Done:  E(RB3LYP) =  -899.113292774     A.U. after   17 cycles
 SCF Done:  E(RB3LYP) =  -899.144522469     A.U. after   16 cycles
 SCF Done:  E(RB3LYP) =  -899.226657792     A.U. after   13 cycles
 SCF Done:  E(RB3LYP) =  -899.226660817     A.U. after   11 cycles
 SCF Done:  E(RB3LYP) =  -899.226665114     A.U. after   12 cycles
 SCF Done:  E(RB3LYP) =  -899.226666247     A.U. after   10 cycles
 SCF Done:  E(RB3LYP) =  -899.226666446     A.U. after    9 cycles
 SCF Done:  E(RB3LYP) =  -899.226666623     A.U. after    9 cycles
 SCF Done:  E(RB3LYP) =  -899.226666742     A.U. after    9 cycles
 SCF Done:  E(RB3LYP) =  -899.226666815     A.U. after    9 cycles
 SCF Done:  E(RB3LYP) =  -899.226666877     A.U. after    9 cycles
 Optimization completed.
    -- Stationary point found.
 Normal termination of Gaussian 16 at Fri May 19 02:45:19 2023.

 ----------------------------------------------------------------------
 #N Geom=AllCheck Guess=TCheck SCRF=Check GenChk RB3LYP/6-31G(2df,p) Fr
 eq
 ----------------------------------------------------------------------

 Structure from the checkpoint file:  "SdCC1dCCdCCdCc2cccc1c2.chk"
 -------------------
 Title Card Required
 -------------------
 Charge =  0 Multiplicity = 1

                         Standard orientation:
 ---------------------------------------------------------------------
 Center     Atomic      Atomic             Coordinates (Angstroms)
 Number     Number       Type             X           Y           Z
 ---------------------------------------------------------------------
      1         16           0       -5.782853    0.184381   -0.725013
      2          6           0       -4.354200   -0.445505    0.087612
      3          6           0       -4.060213   -1.473261    0.854706
      4          6           0       -3.147505    0.314779    0.459738
      5          6           0       -1.863486   -0.093300    0.164249
      6          6           0       -0.701615    0.580734    0.568676
      7          6           0        0.588968    0.142617    0.261694
      8          6           0        1.748778    0.803694    0.597866
      9          6           0        3.090581    0.305705    0.325628
     10          6           0        3.469988   -1.017593    0.289153
     11          6           0        4.765997   -1.537399   -0.348513
     12          6           0        5.469337   -0.302280   -0.724878
     13          6           0        5.143651    0.885032   -0.646747
     14          6           0        3.967789    1.381313   -0.083439
     15          1           0       -5.134333    0.792660   -1.738718
     16          1           0       -3.297910    1.222725    1.044499
     17          1           0       -1.750525   -1.002034   -0.420773
     18          1           0       -0.812590    1.483652    1.166319
     19          1           0        0.685514   -0.793095   -0.287023
     20          1           0        1.671939    1.772603    1.086714
     21          1           0        2.844783   -1.763365    0.766865
     22          1           0        5.330637   -2.170225    0.354473
     23          1           0        4.603604   -2.178651   -1.231819
     24          1           0        3.676114    2.418418    0.025204
 ---------------------------------------------------------------------

 SCF Done:  E(RB3LYP) =  -899.226666877     A.U. after    3 cycles

 The electronic state is 1-A.
 Alpha  occ. eigenvalues --  -88.89059 -10.26284 -10.24397 -10.22951 -10.22192
 Alpha  occ. eigenvalues --  -10.22030 -10.21141 -10.20964 -10.20843 -10.20613
 Alpha  occ. eigenvalues --  -10.20539 -10.20464 -10.20037 -10.19194  -7.95482
 Alpha  occ. eigenvalues --   -5.91957  -5.91590  -5.91015  -0.88505  -0.85252
 Alpha  occ. eigenvalues --   -0.82532  -0.79181  -0.77201  -0.74828  -0.71527
 Alpha  occ. eigenvalues --   -0.66218  -0.65448  -0.60288  -0.57308  -0.55219
 Alpha  occ. eigenvalues --   -0.51144  -0.49798  -0.48708  -0.47662  -0.46313
 Alpha  occ. eigenvalues --   -0.45957  -0.45149  -0.42744  -0.40931  -0.39396
 Alpha  occ. eigenvalues --   -0.38545  -0.37431  -0.36463  -0.36175  -0.34332
 Alpha  occ. eigenvalues --   -0.30345  -0.29277  -0.28113  -0.26206  -0.25929
 Alpha  occ. eigenvalues --   -0.22572  -0.16789
 Alpha virt. eigenvalues --   -0.14090  -0.08686  -0.05207  -0.00073   0.02017
 Alpha virt. eigenvalues --    0.03871   0.04834   0.07473   0.08210   0.09132
 Alpha virt. eigenvalues --    0.09404   0.10183   0.11361   0.13738   0.14062

 Mulliken charges:
               1
     1  S   -0.235481
     2  C    0.097903
     3  C   -0.231000
     4  C   -0.136683
     5  C   -0.005863
     6  C   -0.087771
     7  C   -0.060787
     8  C   -0.209640
     9  C    0.353802
    10  C   -0.254676
    11  C   -0.351622
    12  C    0.062839
    13  C   -0.005125
    14  C   -0.164843
    15  H    0.161114
    16  H    0.112409
    17  H    0.113628
    18  H    0.093630
    19  H    0.097971
    20  H    0.098913
    21  H    0.106299
    22  H    0.153306
    23  H    0.152694
    24  H    0.138984
 Sum of Mulliken charges =  -0.00000

 Dipole moment (field-independent basis, Debye):
    X=              5.1409    Y=              2.2054    Z=             -1.3313  Tot=              5.7502
 Quadrupole moment (field-independent basis, Debye-Ang):
   XX=           -101.0945   YY=            -85.0593   ZZ=            -89.9789
   XY=            -13.7670   XZ=              7.3050   YZ=              4.4152

  Exact polarizability: 755.165  -6.188 150.665 -37.885   1.069  98.970
 Approx polarizability:3948.722 -44.821 319.600-409.957   2.652 212.267

                      1                      2                      3
                      A                      A                      A
 Frequencies --     30.4284                42.5453                44.6102
 Red. masses --      8.1338                 6.0377                 5.4399
 Frc consts  --      0.0044                 0.0064                 0.0064
 IR Inten    --      1.2429                 1.7861                 4.8761

                      4                      5                      6
                      A                      A                      A
 Frequencies --     77.8244               126.0720               140.8937
 Red. masses --      5.9612                 5.7792                 3.2327
 Frc consts  --      0.0213                 0.0541                 0.0378
 IR Inten    --      2.7025                 1.4730                 7.1344

                      7                      8                      9
                      A                      A                      A
 Frequencies --    177.8046               203.7267               220.4816
 Red. masses --      3.2504                 2.8289                 2.1676
 Frc consts  --      0.0605                 0.0692                 0.0621
 IR Inten    --      4.4281                69.3014                 1.2160

                     10                     11                     12
                      A                      A                      A
 Frequencies --    226.8193               245.0363               283.7978
 Red. masses --      1.6756                 3.9850                 3.3493
 Frc consts  --      0.0508                 0.1410                 0.1589
 IR Inten    --     13.8307                15.8023                 2.5065

                     13                     14                     15
                      A                      A                      A
 Frequencies --    312.6928               318.0929               338.6791
 Red. masses --      5.9157                 4.6521                 4.3170
 Frc consts  --      0.3408                 0.2773                 0.2917
 IR Inten    --     10.0146                20.7782                23.2456

                     16                     17                     18
                      A                      A                      A
 Frequencies --    374.4417               391.3203               411.7815
 Red. masses --      4.9158                 2.7628                 4.8439
 Frc consts  --      0.4061                 0.2493                 0.4839
 IR Inten    --     37.8547                14.1192                 5.2199

                     19                     20                     21
                      A                      A                      A
 Frequencies --    471.6346               514.2177               545.0676
 Red. masses --      6.0703                 2.6118                 3.8490
 Frc consts  --      0.7956                 0.4069                 0.6737
 IR Inten    --     22.0973                24.5326                36.3622

                     22                     23                     24
                      A                      A                      A
 Frequencies --    577.0742               659.5319               677.8293
 Red. masses --      2.6832                 1.9050                 6.7390
 Frc consts  --      0.5265                 0.4882                 1.8243
 IR Inten    --     60.9320                 9.6530                25.3887

                     25                     26                     27
                      A                      A                      A
 Frequencies --    719.9994               796.6916               833.5844
 Red. masses --      4.3260                 1.6225                 1.4572
 Frc consts  --      1.3213                 0.6068                 0.5966
 IR Inten    --     21.0168                 3.9257                16.6367

                     28                     29                     30
                      A                      A                      A
 Frequencies --    857.2212               859.9315               901.9904
 Red. masses --      2.0778                 2.1574                 1.9694
 Frc consts  --      0.8996                 0.9400                 0.9440
 IR Inten    --     82.2819                 9.5405                 5.4386

                     31                     32                     33
                      A                      A                      A
 Frequencies --    910.3716               944.9670               949.1887
 Red. masses --      2.0118                 1.2133                 3.0932
 Frc consts  --      0.9823                 0.6383                 1.6420
 IR Inten    --     11.5943               106.8833               131.5781

                     34                     35                     36
                      A                      A                      A
 Frequencies --    970.0651              1015.0611              1033.6153
 Red. masses --      1.1791                 2.7440                 1.1554
 Frc consts  --      0.6537                 1.6658                 0.7273
 IR Inten    --     17.2701                 3.0997                50.1740

                     37                     38                     39
                      A                      A                      A
 Frequencies --   1092.7163              1121.9737              1148.4690
 Red. masses --      4.2708                 1.2043                 2.2592
 Frc consts  --      3.0045                 0.8932                 1.7556
 IR Inten    --    164.7177                 0.8761                 1.2006

                     40                     41                     42
                      A                      A                      A
 Frequencies --   1195.4165              1212.1898              1225.1940
 Red. masses --      1.9649                 1.3810                 2.5434
 Frc consts  --      1.6544                 1.1956                 2.2494
 IR Inten    --     28.5882                55.6698                 3.0442

                     43                     44                     45
                      A                      A                      A
 Frequencies --   1229.7446              1256.4903              1291.9465
 Red. masses --      1.4772                 1.8241                 1.6944
 Frc consts  --      1.3162                 1.6968                 1.6663
 IR Inten    --     47.7606                 9.4798                39.9177

                     46                     47                     48
                      A                      A                      A
 Frequencies --   1297.8760              1304.1209              1310.6275
 Red. masses --      1.7196                 1.5510                 1.4415
 Frc consts  --      1.7067                 1.5542                 1.4589
 IR Inten    --     13.2347                 9.0278                 5.1341

                     49                     50                     51
                      A                      A                      A
 Frequencies --   1319.6647              1429.2571              1439.8313
 Red. masses --      1.9309                 1.9850                 1.2626
 Frc consts  --      1.9812                 2.3891                 1.5421
 IR Inten    --      3.2774               121.4098                14.3784

                     52                     53                     54
                      A                      A                      A
 Frequencies --   1519.3111              1544.9839              1592.0988
 Red. masses --      3.4677                 3.1281                 4.6156
 Frc consts  --      4.7162                 4.3993                 6.8931
 IR Inten    --    260.5052                61.5580                21.3836

                     55                     56                     57
                      A                      A                      A
 Frequencies --   1677.8982              2054.4605              2651.4026
 Red. masses --      9.3651                11.2351                 1.0388
 Frc consts  --     15.5344                27.9398                 4.3027
 IR Inten    --    155.7547               131.4294                 5.4718

                     58                     59                     60
                      A                      A                      A
 Frequencies --   2945.4733              2981.3234              3117.5355
 Red. masses --      1.0764                 1.0791                 1.0867
 Frc consts  --      5.5024                 5.6512                 6.2230
 IR Inten    --     37.9538                40.0054                14.7602

                     61                     62                     63
                      A                      A                      A
 Frequencies --   3139.9356              3145.2455              3152.0287
 Red. masses --      1.0881                 1.0871                 1.0859
 Frc consts  --      6.3205                 6.3364                 6.3565
 IR Inten    --      7.3459                 1.7202                20.9570

                     64                     65                     66
                      A                      A                      A
 Frequencies --   3174.1502              3191.3568              3214.3862
 Red. masses --      1.0877                 1.0876                 1.0909
 Frc consts  --      6.4568                 6.5261                 6.6409
 IR Inten    --      6.4360                 4.6224                66.3539

 - Thermochemistry -
 -------------------
 Temperature   298.150 Kelvin.  Pressure   1.00000 Atm.
 Atom     1 has atomic number 16 and mass  31.97207

 Molecular mass:   198.05032 amu.
 Principal axes and moments of inertia in atomic units:
                           1         2         3
     Eigenvalues --   741.27342********************
           X            0.99997  -0.00749   0.00133
           Y            0.00740   0.99838   0.05633
           Z           -0.00175  -0.05632   0.99841
 This molecule is an asymmetric top.
 Rotational symmetry number  1.
 Warning -- assumption of classical behavior for rotation
           may cause significant error
 Rotational temperatures (Kelvin)      0.11684     0.00740     0.00722
 Rotational constants (GHZ):           2.43465     0.15423     0.15036
 Zero-point vibrational energy     455670.7 (Joules/Mol)
                                  108.90792 (Kcal/Mol)
 Warning -- explicit consideration of  22 degrees of freedom as
           vibrations may cause significant error
 Vibrational temperatures:     43.78    61.21    64.18   111.97   181.39
          (Kelvin)            202.71   255.82   293.12   317.22   326.34
                              352.55   408.32   449.90   457.66   487.28
                              538.74   563.02   592.46   678.58   739.84
                              784.23   830.28   948.92   975.25  1035.92
                             1146.26  1199.34  1233.35  1237.25  1297.76
                             1309.82  1359.60  1365.67  1395.71  1460.45
                             1487.14  1572.18  1614.27  1652.39  1719.94
                             1744.07  1762.78  1769.33  1807.81  1858.82
                             1867.35  1876.34  1885.70  1898.70  2056.38
                             2071.60  2185.95  2222.89  2290.68  2414.12
                             2955.91  3814.78  4237.88  4289.46  4485.44
                             4517.67  4525.31  4535.07  4566.89  4591.65
                             4624.78

 Zero-point correction=                           0.173556 (Hartree/Particle)
 Thermal correction to Energy=                    0.188337
 Thermal correction to Enthalpy=                  0.189281
 Thermal correction to Gibbs Free Energy=         0.130187
 Sum of electronic and zero-point Energies=           -899.053111
 Sum of electronic and thermal Energies=              -899.038330
 Sum of electronic and thermal Enthalpies=            -899.037386
 Sum of electronic and thermal Free Energies=         -899.096480

                     E (Thermal)             CV                S
                      KCal/Mol        Cal/Mol-Kelvin    Cal/Mol-Kelvin
 Total                  118.183             53.420            124.374
 Electronic               0.000              0.000              0.000
 Translational            0.889              2.981             41.755
 Rotational               0.889              2.981             33.009
 Vibrational            116.406             47.458             49.610
 Vibration     1          0.594              1.984              5.801
 Vibration     2          0.595              1.980              5.137
 Vibration     3          0.595              1.980              5.043
 Vibration     4          0.599              1.964              3.945
 Vibration     5          0.611              1.927              3.005
 Vibration     6          0.615              1.912              2.792
 Vibration     7          0.628              1.870              2.351
 Vibration     8          0.639              1.835              2.099
 Vibration     9          0.647              1.810              1.955
 Vibration    10          0.650              1.800              1.904
 Vibration    11          0.660              1.771              1.766
 Vibration    12          0.682              1.704              1.511
 Vibration    13          0.701              1.649              1.348
 Vibration    14          0.704              1.639              1.320
 Vibration    15          0.719              1.598              1.218
 Vibration    16          0.746              1.525              1.062
 Vibration    17          0.759              1.489              0.995
 Vibration    18          0.776              1.445              0.920
 Vibration    19          0.829              1.313              0.733
 Vibration    20          0.869              1.218              0.624
 Vibration    21          0.900              1.150              0.554
 Vibration    22          0.934              1.081              0.491

                           ! Non-Optimized Parameters !
 Normal termination of Gaussian 16 at Fri May 19 03:47:17 2023.
