 Gaussian 16, Revision A.03,
 Gaussian 16:  ES64L-G16RevA.03 25-Dec-2016

 -----------------------------
 # opt freq b3lyp/6-31g(2df,p)
 -----------------------------

 -------------------
 Title Card Required
 -------------------
 Symbolic Z-matrix:
 Charge =  0 Multiplicity = 1

 SCF Done:  E(RB3LYP) =  -1618.21139377     A.U. after   20 cycles
 SCF Done:  E(RB3LYP) =  -1618.26717079     A.U. after   16 cycles
 SCF Done:  E(RB3LYP) =  -1618.31376539     A.U. after   16 cycles
 SCF Done:  E(RB3LYP) =  -1618.32853368     A.U. after   15 cycles
 SCF Done:  E(RB3LYP) =  -1618.35005037     A.U. after   15 cycles
 SCF Done:  E(RB3LYP) =  -1618.36587923     A.U. after   15 cycles
 SCF Done:  E(RB3LYP) =  -1618.37782919     A.U. after   15 cycles
 SCF Done:  E(RB3LYP) =  -1618.37978127     A.U. after   15 cycles
 SCF Done:  E(RB3LYP) =  -1618.38389106     A.U. after   14 cycles
 SCF Done:  E(RB3LYP) =  -1618.38548971     A.U. after   14 cycles
 SCF Done:  E(RB3LYP) =  -1618.38675743     A.U. after   13 cycles
 SCF Done:  E(RB3LYP) =  -1618.38601088     A.U. after   13 cycles
 SCF Done:  E(RB3LYP) =  -1618.38715055     A.U. after   12 cycles
 SCF Done:  E(RB3LYP) =  -1618.38720219     A.U. after   12 cycles
 SCF Done:  E(RB3LYP) =  -1618.38721863     A.U. after   11 cycles
 SCF Done:  E(RB3LYP) =  -1618.38722497     A.U. after    9 cycles
 SCF Done:  E(RB3LYP) =  -1618.38722968     A.U. after    9 cycles
 SCF Done:  E(RB3LYP) =  -1618.38723167     A.U. after    9 cycles
 SCF Done:  E(RB3LYP) =  -1618.38723201     A.U. after    7 cycles
 Optimization completed.
    -- Stationary point found.
 Normal termination of Gaussian 16 at Sat May 20 04:58:06 2023.

 ----------------------------------------------------------------------
 #N Geom=AllCheck Guess=TCheck SCRF=Check GenChk RB3LYP/6-31G(2df,p) Fr
 eq
 ----------------------------------------------------------------------

 Structure from the checkpoint file:  "SdCC1CdCCdC2CdCCdC2SC1dS.chk"
 -------------------
 Title Card Required
 -------------------
 Charge =  0 Multiplicity = 1

                         Standard orientation:
 ---------------------------------------------------------------------
 Center     Atomic      Atomic             Coordinates (Angstroms)
 Number     Number       Type             X           Y           Z
 ---------------------------------------------------------------------
      1         16           0        2.670734    2.210267    0.818696
      2          6           0        2.402814    0.838037    0.008440
      3          6           0        1.032114    0.300106   -0.336052
      4          6           0        0.854112    0.283143   -1.848385
      5          6           0       -0.293387    0.425282   -2.528325
      6          6           0       -1.669961    0.529940   -2.048347
      7          6           0       -2.106206    0.363198   -0.805026
      8          6           0       -3.221094    0.012885    0.083860
      9          6           0       -3.360339    1.059499    1.189704
     10          6           0       -2.090844    0.957549    1.596585
     11          6           0       -1.727203   -0.101964    0.552924
     12         16           0       -0.758199   -1.576044    0.770551
     13          6           0        0.840530   -1.127117    0.194443
     14         16           0        2.017779   -2.266869    0.233337
     15          1           0        3.231924    0.224490   -0.346989
     16          1           0        0.296146    0.968813    0.105310
     17          1           0        1.767617    0.123535   -2.414065
     18          1           0       -0.208913    0.413802   -3.612404
     19          1           0       -2.422673    0.694148   -2.815797
     20          1           0       -3.888765   -0.818395   -0.109760
     21          1           0       -4.162848    1.754291    1.398753
     22          1           0       -1.460724    1.518308    2.274693
 ---------------------------------------------------------------------

 SCF Done:  E(RB3LYP) =  -1618.38723201     A.U. after    1 cycles

 The electronic state is 1-A.
 Alpha  occ. eigenvalues --  -88.91944 -88.87104 -88.85679 -10.29018 -10.26331
 Alpha  occ. eigenvalues --  -10.25330 -10.23783 -10.23479 -10.23332 -10.21730
 Alpha  occ. eigenvalues --  -10.21645 -10.21612 -10.21585 -10.21269  -7.98008
 Alpha  occ. eigenvalues --   -7.93637  -7.92243  -5.94478  -5.94059  -5.93690
 Alpha  occ. eigenvalues --   -5.90008  -5.89875  -5.89123  -5.88580  -5.88429
 Alpha  occ. eigenvalues --   -5.87813  -0.94747  -0.87633  -0.82466  -0.81266
 Alpha  occ. eigenvalues --   -0.77495  -0.74380  -0.73042  -0.69367  -0.64456
 Alpha  occ. eigenvalues --   -0.59976  -0.59316  -0.55314  -0.54749  -0.52968
 Alpha  occ. eigenvalues --   -0.50900  -0.50204  -0.48224  -0.45233  -0.43938
 Alpha  occ. eigenvalues --   -0.42339  -0.41949  -0.39120  -0.38910  -0.36674
 Alpha  occ. eigenvalues --   -0.36026  -0.35620  -0.34476  -0.33164  -0.31617
 Alpha  occ. eigenvalues --   -0.30711  -0.26315  -0.24681  -0.24062  -0.23864
 Alpha  occ. eigenvalues --   -0.21969
 Alpha virt. eigenvalues --   -0.09080  -0.08054  -0.05261  -0.03274   0.02517
 Alpha virt. eigenvalues --    0.05101   0.06309   0.07959   0.08198   0.09809
 Alpha virt. eigenvalues --    0.10359   0.12078   0.12370   0.12645   0.14353

 Mulliken charges:
               1
     1  S   -0.234976
     2  C    0.025705
     3  C   -0.176866
     4  C   -0.097313
     5  C   -0.037191
     6  C   -0.295633
     7  C    0.363437
     8  C   -0.286077
     9  C   -0.104700
    10  C   -0.128797
    11  C    0.066629
    12  S   -0.040835
    13  C    0.221096
    14  S   -0.319087
    15  H    0.169017
    16  H    0.139811
    17  H    0.115434
    18  H    0.109102
    19  H    0.113419
    20  H    0.135576
    21  H    0.128387
    22  H    0.133863
 Sum of Mulliken charges =   0.00000

 Dipole moment (field-independent basis, Debye):
    X=             -3.9814    Y=              1.3761    Z=             -1.8741  Tot=              4.6106
 Quadrupole moment (field-independent basis, Debye-Ang):
   XX=            -97.6269   YY=           -111.6663   ZZ=            -96.2004
   XY=             -2.0735   XZ=             -3.1421   YZ=              0.9791

  Exact polarizability: 216.631 -14.269 150.525  -0.784   6.478 144.876
 Approx polarizability: 378.768 -39.724 261.023  -5.012  16.781 253.407

                      1                      2                      3
                      A                      A                      A
 Frequencies --     42.3527                57.5803                59.8348
 Red. masses --      9.2497                 8.7890                 8.8669
 Frc consts  --      0.0098                 0.0172                 0.0187
 IR Inten    --      0.4993                 0.9332                 0.7632

                      4                      5                      6
                      A                      A                      A
 Frequencies --    123.1893               136.1416               188.1454
 Red. masses --      5.5301                 5.6102                 6.4044
 Frc consts  --      0.0494                 0.0613                 0.1336
 IR Inten    --      0.6386                 0.5636                 1.3606

                      7                      8                      9
                      A                      A                      A
 Frequencies --    223.9007               246.8914               255.2761
 Red. masses --      4.1950                 6.9647                 4.3987
 Frc consts  --      0.1239                 0.2501                 0.1689
 IR Inten    --      0.9006                 1.0695                 3.8904

                     10                     11                     12
                      A                      A                      A
 Frequencies --    290.3208               300.2714               354.3056
 Red. masses --      4.8519                 3.0063                 6.1003
 Frc consts  --      0.2409                 0.1597                 0.4512
 IR Inten    --      0.1674                 0.3307                 6.1987

                     13                     14                     15
                      A                      A                      A
 Frequencies --    377.9200               436.2807               455.5181
 Red. masses --      7.1118                 4.9665                 3.7391
 Frc consts  --      0.5985                 0.5570                 0.4571
 IR Inten    --      2.5316                 1.5418                 6.3348

                     16                     17                     18
                      A                      A                      A
 Frequencies --    506.8046               555.1635               564.2740
 Red. masses --      4.7930                 4.1148                 6.2476
 Frc consts  --      0.7253                 0.7472                 1.1720
 IR Inten    --      2.2724                 2.6205                 1.3782

                     19                     20                     21
                      A                      A                      A
 Frequencies --    608.4869               665.9059               680.8490
 Red. masses --      4.1075                 3.1039                 2.8625
 Frc consts  --      0.8960                 0.8109                 0.7818
 IR Inten    --      5.3735                19.5818                16.2986

                     22                     23                     24
                      A                      A                      A
 Frequencies --    769.4612               776.1172               794.7207
 Red. masses --      1.9524                 1.7358                 2.9956
 Frc consts  --      0.6811                 0.6160                 1.1147
 IR Inten    --     19.2014                43.5551                16.1239

                     25                     26                     27
                      A                      A                      A
 Frequencies --    837.8237               872.4835               886.1178
 Red. masses --      3.6873                 2.0581                 1.9934
 Frc consts  --      1.5250                 0.9231                 0.9222
 IR Inten    --      5.6091                31.4460                34.3130

                     28                     29                     30
                      A                      A                      A
 Frequencies --    898.9770               906.6180               941.3359
 Red. masses --      4.2220                 1.8457                 1.7366
 Frc consts  --      2.0103                 0.8938                 0.9067
 IR Inten    --     75.1662                16.6112                 5.2936

                     31                     32                     33
                      A                      A                      A
 Frequencies --    958.2260               973.2079               995.6489
 Red. masses --      3.2833                 1.8933                 1.2996
 Frc consts  --      1.7762                 1.0565                 0.7591
 IR Inten    --      9.5959                 2.4781                 1.8891

                     34                     35                     36
                      A                      A                      A
 Frequencies --   1012.1119              1019.1553              1044.1679
 Red. masses --      4.1188                 3.4376                 3.8973
 Frc consts  --      2.4859                 2.1037                 2.5035
 IR Inten    --      4.3379                 4.8387                 5.2913

                     37                     38                     39
                      A                      A                      A
 Frequencies --   1065.8954              1104.5145              1137.8909
 Red. masses --      1.5451                 2.0955                 4.1582
 Frc consts  --      1.0343                 1.5062                 3.1721
 IR Inten    --      1.9375                 8.8835                86.2870

                     40                     41                     42
                      A                      A                      A
 Frequencies --   1160.8919              1163.4459              1200.4822
 Red. masses --      3.7950                 2.7574                 1.6141
 Frc consts  --      3.0133                 2.1990                 1.3706
 IR Inten    --     82.7998                 6.6220                 1.0438

                     43                     44                     45
                      A                      A                      A
 Frequencies --   1233.6226              1274.0562              1291.2973
 Red. masses --      1.1896                 1.6033                 1.2832
 Frc consts  --      1.0667                 1.5333                 1.2606
 IR Inten    --      3.2812                 9.2872                43.2447

                     46                     47                     48
                      A                      A                      A
 Frequencies --   1300.7702              1372.5450              1398.3286
 Red. masses --      1.1652                 1.5066                 1.4796
 Frc consts  --      1.1616                 1.6723                 1.7046
 IR Inten    --     10.4524                 2.6671                44.5185

                     49                     50                     51
                      A                      A                      A
 Frequencies --   1425.8815              1614.8048              1673.6068
 Red. masses --      1.4263                 5.8800                 7.0441
 Frc consts  --      1.7085                 9.0337                11.6247
 IR Inten    --      2.2237                 7.5244                 0.9403

                     52                     53                     54
                      A                      A                      A
 Frequencies --   1789.3290              3119.5950              3132.9305
 Red. masses --      9.3107                 1.0854                 1.0832
 Frc consts  --     17.5635                 6.2238                 6.2643
 IR Inten    --     13.6560                 1.9441                 0.9617

                     55                     56                     57
                      A                      A                      A
 Frequencies --   3145.0332              3158.0217              3175.3513
 Red. masses --      1.0837                 1.0869                 1.0934
 Frc consts  --      6.3157                 6.3869                 6.4954
 IR Inten    --      6.5852                 7.7626                12.1363

                     58                     59                     60
                      A                      A                      A
 Frequencies --   3192.1918              3206.1979              3237.1273
 Red. masses --      1.0899                 1.0854                 1.1159
 Frc consts  --      6.5439                 6.5736                 6.8897
 IR Inten    --      1.7322                 2.8860                14.6852

 - Thermochemistry -
 -------------------
 Temperature   298.150 Kelvin.  Pressure   1.00000 Atm.
 Atom     1 has atomic number 16 and mass  31.97207

 Molecular mass:   235.97882 amu.
 Principal axes and moments of inertia in atomic units:
                           1         2         3
     Eigenvalues --  2750.459344541.311515111.59355
           X            0.99986  -0.01356  -0.00958
           Y            0.01369   0.99981   0.01385
           Z            0.00939  -0.01398   0.99986
 This molecule is an asymmetric top.
 Rotational symmetry number  1.
 Warning -- assumption of classical behavior for rotation
           may cause significant error
 Rotational temperatures (Kelvin)      0.03149     0.01907     0.01694
 Rotational constants (GHZ):           0.65616     0.39741     0.35307
 Zero-point vibrational energy     403078.1 (Joules/Mol)
                                   96.33798 (Kcal/Mol)
 Warning -- explicit consideration of  19 degrees of freedom as
           vibrations may cause significant error
 Vibrational temperatures:     60.94    82.85    86.09   177.24   195.88
          (Kelvin)            270.70   322.14   355.22   367.29   417.71
                              432.02   509.77   543.74   627.71   655.39
                              729.18   798.76   811.86   875.48   958.09
                              979.59  1107.08  1116.66  1143.43  1205.44
                             1255.31  1274.93  1293.43  1304.42  1354.37
                             1378.67  1400.23  1432.52  1456.20  1466.34
                             1502.32  1533.59  1589.15  1637.17  1670.26
                             1673.94  1727.23  1774.91  1833.08  1857.89
                             1871.52  1974.79  2011.88  2051.53  2323.34
                             2407.95  2574.45  4488.40  4507.59  4525.00
                             4543.69  4568.62  4592.85  4613.00  4657.50

 Zero-point correction=                           0.153524 (Hartree/Particle)
 Thermal correction to Energy=                    0.166361
 Thermal correction to Enthalpy=                  0.167305
 Thermal correction to Gibbs Free Energy=         0.112851
 Sum of electronic and zero-point Energies=          -1618.233708
 Sum of electronic and thermal Energies=             -1618.220871
 Sum of electronic and thermal Enthalpies=           -1618.219927
 Sum of electronic and thermal Free Energies=        -1618.274381

                     E (Thermal)             CV                S
                      KCal/Mol        Cal/Mol-Kelvin    Cal/Mol-Kelvin
 Total                  104.393             48.346            114.609
 Electronic               0.000              0.000              0.000
 Translational            0.889              2.981             42.277
 Rotational               0.889              2.981             32.523
 Vibrational            102.616             42.385             39.808
 Vibration     1          0.595              1.980              5.146
 Vibration     2          0.596              1.974              4.538
 Vibration     3          0.597              1.973              4.463
 Vibration     4          0.610              1.930              3.050
 Vibration     5          0.614              1.917              2.857
 Vibration     6          0.633              1.856              2.246
 Vibration     7          0.649              1.805              1.927
 Vibration     8          0.661              1.768              1.753
 Vibration     9          0.666              1.754              1.694
 Vibration    10          0.686              1.692              1.472
 Vibration    11          0.693              1.673              1.415
 Vibration    12          0.730              1.566              1.147
 Vibration    13          0.748              1.517              1.047
 Vibration    14          0.797              1.391              0.838
 Vibration    15          0.814              1.349              0.779
 Vibration    16          0.862              1.235              0.641
 Vibration    17          0.911              1.128              0.534
 Vibration    18          0.920              1.109              0.515
 Vibration    19          0.967              1.014              0.435

                           ! Non-Optimized Parameters !
 Normal termination of Gaussian 16 at Sat May 20 06:23:23 2023.
