 Gaussian 16, Revision A.03,
 Gaussian 16:  ES64L-G16RevA.03 25-Dec-2016

 -----------------------------
 # opt freq b3lyp/6-31g(2df,p)
 -----------------------------

 -------------------
 Title Card Required
 -------------------
 Symbolic Z-matrix:
 Charge =  0 Multiplicity = 1

 SCF Done:  E(RB3LYP) =  -2143.14778454     A.U. after   19 cycles
 SCF Done:  E(RB3LYP) =  -2143.21369115     A.U. after   15 cycles
 SCF Done:  E(RB3LYP) =  -2143.27631746     A.U. after   15 cycles
 SCF Done:  E(RB3LYP) =  -2143.30917880     A.U. after   15 cycles
 SCF Done:  E(RB3LYP) =  -2143.32013073     A.U. after   14 cycles
 SCF Done:  E(RB3LYP) =  -2143.33120034     A.U. after   15 cycles
 SCF Done:  E(RB3LYP) =  -2143.33824654     A.U. after   14 cycles
 SCF Done:  E(RB3LYP) =  -2143.34615611     A.U. after   15 cycles
 SCF Done:  E(RB3LYP) =  -2143.35371537     A.U. after   14 cycles
 SCF Done:  E(RB3LYP) =  -2143.36344767     A.U. after   15 cycles
 SCF Done:  E(RB3LYP) =  -2143.37306271     A.U. after   14 cycles
 SCF Done:  E(RB3LYP) =  -2143.37324098     A.U. after   12 cycles
 SCF Done:  E(RB3LYP) =  -2143.37328088     A.U. after   13 cycles
 SCF Done:  E(RB3LYP) =  -2143.37330716     A.U. after   11 cycles
 SCF Done:  E(RB3LYP) =  -2143.37332046     A.U. after   10 cycles
 SCF Done:  E(RB3LYP) =  -2143.37332235     A.U. after    8 cycles
 SCF Done:  E(RB3LYP) =  -2143.37332284     A.U. after    8 cycles
 SCF Done:  E(RB3LYP) =  -2143.37332296     A.U. after    7 cycles
 SCF Done:  E(RB3LYP) =  -2143.37332302     A.U. after    6 cycles
 Optimization completed.
    -- Stationary point found.
 Normal termination of Gaussian 16 at Tue May 16 18:10:16 2023.

 ----------------------------------------------------------------------
 #N Geom=AllCheck Guess=TCheck SCRF=Check GenChk RB3LYP/6-31G(2df,p) Fr
 eq
 ----------------------------------------------------------------------

 Structure from the checkpoint file:  "SdCC1dNNNSC2dCCdCSC2dCCdCS1.chk"
 -------------------
 Title Card Required
 -------------------
 Charge =  0 Multiplicity = 1

                         Standard orientation:
 ---------------------------------------------------------------------
 Center     Atomic      Atomic             Coordinates (Angstroms)
 Number     Number       Type             X           Y           Z
 ---------------------------------------------------------------------
      1         16           0        4.010676    1.417665   -1.111279
      2          6           0        2.826838    0.345468   -1.434827
      3          6           0        2.193963   -0.598844   -0.533314
      4          7           0        1.264585   -1.328788   -1.076031
      5          7           0        0.670786   -2.305799   -0.404872
      6          7           0       -0.661033   -2.543435   -0.816564
      7         16           0       -1.897526   -2.214751    0.382638
      8          6           0       -2.375456   -0.519109    0.060667
      9          6           0       -3.621847   -0.326348   -0.445107
     10          6           0       -4.225862    0.961919   -0.660887
     11          6           0       -3.547134    2.113488   -0.504015
     12         16           0       -1.888520    2.230725   -0.003563
     13          6           0       -1.476235    0.560160    0.478972
     14          6           0       -0.310962    0.343613    1.134755
     15          6           0        0.698884    1.268451    1.574017
     16          6           0        1.994013    0.921762    1.723288
     17         16           0        2.651800   -0.663086    1.218910
     18          1           0        2.404251    0.275477   -2.439015
     19          1           0        0.849102   -2.347042    0.604431
     20          1           0       -0.762007   -3.525942   -1.053132
     21          1           0       -4.203829   -1.202896   -0.706499
     22          1           0       -5.255170    0.998110   -1.000297
     23          1           0       -3.986732    3.081243   -0.718423
     24          1           0       -0.080445   -0.691595    1.337553
     25          1           0        0.418684    2.297034    1.799893
     26          1           0        2.735686    1.609554    2.109163
 ---------------------------------------------------------------------

 SCF Done:  E(RB3LYP) =  -2143.37332302     A.U. after    1 cycles

 The electronic state is 1-A.
 Alpha  occ. eigenvalues --  -88.92005 -88.92004 -88.89138 -88.84814 -14.42645
 Alpha  occ. eigenvalues --  -14.39997 -14.39407 -10.25655 -10.24561 -10.24555
 Alpha  occ. eigenvalues --  -10.24414 -10.24388 -10.22383 -10.21766 -10.21464
 Alpha  occ. eigenvalues --  -10.20566 -10.19227  -7.98204  -7.97886  -7.95277
 Alpha  occ. eigenvalues --   -7.91348  -5.94643  -5.94482  -5.94249  -5.94042
 Alpha  occ. eigenvalues --   -5.93901  -5.93366  -5.91761  -5.91409  -5.90862
 Alpha  occ. eigenvalues --   -5.87667  -5.87621  -5.86852  -1.06849  -0.94177
 Alpha  occ. eigenvalues --   -0.88812  -0.84142  -0.82401  -0.80817  -0.79093
 Alpha  occ. eigenvalues --   -0.76138  -0.73495  -0.70665  -0.69149  -0.64320
 Alpha  occ. eigenvalues --   -0.62931  -0.60437  -0.58459  -0.55841  -0.53784
 Alpha  occ. eigenvalues --   -0.52992  -0.50394  -0.49930  -0.48997  -0.47674
 Alpha  occ. eigenvalues --   -0.44876  -0.44561  -0.42046  -0.41891  -0.40959
 Alpha  occ. eigenvalues --   -0.39909  -0.39456  -0.37474  -0.37413  -0.35866
 Alpha  occ. eigenvalues --   -0.33873  -0.33673  -0.31959  -0.30672  -0.30390
 Alpha  occ. eigenvalues --   -0.29743  -0.28288  -0.25899  -0.25032  -0.23041
 Alpha  occ. eigenvalues --   -0.21323  -0.19560
 Alpha virt. eigenvalues --   -0.09206  -0.08062  -0.04566  -0.00268   0.00838
 Alpha virt. eigenvalues --    0.01442   0.03065   0.04815   0.06024   0.07412
 Alpha virt. eigenvalues --    0.08069   0.09253   0.09388   0.10010   0.10448

 Mulliken charges:
               1
     1  S   -0.273422
     2  C   -0.015206
     3  C    0.202520
     4  N   -0.092117
     5  N   -0.229679
     6  N   -0.232155
     7  S   -0.111227
     8  C    0.165430
     9  C   -0.129684
    10  C   -0.097359
    11  C   -0.129836
    12  S   -0.029252
    13  C    0.074666
    14  C   -0.135870
    15  C   -0.089125
    16  C   -0.113710
    17  S   -0.200335
    18  H    0.143526
    19  H    0.266155
    20  H    0.272632
    21  H    0.127306
    22  H    0.116432
    23  H    0.144287
    24  H    0.108621
    25  H    0.121346
    26  H    0.136055
 Sum of Mulliken charges =  -0.00000

 Dipole moment (field-independent basis, Debye):
    X=             -5.5555    Y=             -1.0303    Z=              0.4680  Tot=              5.6696
 Quadrupole moment (field-independent basis, Debye-Ang):
   XX=           -126.5190   YY=           -114.8495   ZZ=           -128.9219
   XY=             -8.0063   XZ=              7.8452   YZ=              3.5694

  Exact polarizability: 326.847  18.670 220.994  25.213  -6.730 140.249
 Approx polarizability: 583.824  66.522 445.293  83.695  -9.195 263.813

                      1                      2                      3
                      A                      A                      A
 Frequencies --     27.1853                42.9130                69.6373
 Red. masses --      9.1638                 9.1374                 9.5084
 Frc consts  --      0.0040                 0.0099                 0.0272
 IR Inten    --      0.8291                 0.5705                 0.8965

                      4                      5                      6
                      A                      A                      A
 Frequencies --     92.5517               128.7088               146.1154
 Red. masses --      9.4184                 4.7273                 9.7367
 Frc consts  --      0.0475                 0.0461                 0.1225
 IR Inten    --      1.6808                 2.1864                 2.4101

                      7                      8                      9
                      A                      A                      A
 Frequencies --    157.3235               178.7738               217.5241
 Red. masses --      7.8367                 4.9715                10.2298
 Frc consts  --      0.1143                 0.0936                 0.2852
 IR Inten    --      0.8291                 2.1419                 0.8015

                     10                     11                     12
                      A                      A                      A
 Frequencies --    225.9541               242.1441               253.2164
 Red. masses --      4.4223                 5.0341                 5.1838
 Frc consts  --      0.1330                 0.1739                 0.1958
 IR Inten    --      1.8249                 7.5112                 0.9748

                     13                     14                     15
                      A                      A                      A
 Frequencies --    331.8078               338.0647               351.7362
 Red. masses --      5.4627                 8.6522                 8.8752
 Frc consts  --      0.3543                 0.5826                 0.6469
 IR Inten    --     12.8634                 3.2164                 4.6038

                     16                     17                     18
                      A                      A                      A
 Frequencies --    375.1235               413.9764               422.1433
 Red. masses --      6.2940                 3.2694                 5.9760
 Frc consts  --      0.5218                 0.3301                 0.6275
 IR Inten    --      2.5935                33.3602                 8.7548

                     19                     20                     21
                      A                      A                      A
 Frequencies --    438.9925               465.9854               490.9577
 Red. masses --      6.9313                 5.0198                 3.5188
 Frc consts  --      0.7870                 0.6422                 0.4997
 IR Inten    --      2.1741                 4.1450                 6.0036

                     22                     23                     24
                      A                      A                      A
 Frequencies --    501.2415               527.2907               541.0718
 Red. masses --      4.0692                 5.0096                 7.2040
 Frc consts  --      0.6024                 0.8206                 1.2426
 IR Inten    --     10.5051                 4.6089                23.2105

                     25                     26                     27
                      A                      A                      A
 Frequencies --    585.6557               587.2327               645.8311
 Red. masses --      5.2578                 6.0030                 5.7298
 Frc consts  --      1.0625                 1.2197                 1.4081
 IR Inten    --      5.9970                32.1549                 6.6706

                     28                     29                     30
                      A                      A                      A
 Frequencies --    664.8335               682.4139               711.5673
 Red. masses --      4.6445                 7.4427                 3.1240
 Frc consts  --      1.2095                 2.0421                 0.9320
 IR Inten    --      7.6146                 4.1036                60.1407

                     31                     32                     33
                      A                      A                      A
 Frequencies --    723.8310               737.4326               750.9763
 Red. masses --      1.2605                 2.1208                 2.3420
 Frc consts  --      0.3891                 0.6795                 0.7782
 IR Inten    --     26.5101                72.2501                50.2588

                     34                     35                     36
                      A                      A                      A
 Frequencies --    770.9582               774.6404               855.6245
 Red. masses --      4.6030                 2.7223                 1.6500
 Frc consts  --      1.6120                 0.9625                 0.7117
 IR Inten    --      5.9665                60.5262                29.0227

                     37                     38                     39
                      A                      A                      A
 Frequencies --    898.2941               907.4179               916.6972
 Red. masses --      1.5020                 1.5952                 5.7041
 Frc consts  --      0.7141                 0.7739                 2.8242
 IR Inten    --     25.4742                 7.2757                 4.3315

                     40                     41                     42
                      A                      A                      A
 Frequencies --    935.0614               958.6634               963.3458
 Red. masses --      1.3295                 1.3247                 1.3211
 Frc consts  --      0.6849                 0.7173                 0.7224
 IR Inten    --      2.9297                 2.3419                 2.3583

                     43                     44                     45
                      A                      A                      A
 Frequencies --   1023.8199              1030.3907              1073.5669
 Red. masses --      4.2917                 3.2372                 3.7403
 Frc consts  --      2.6505                 2.0250                 2.5399
 IR Inten    --     18.6531                 4.6991               194.2701

                     46                     47                     48
                      A                      A                      A
 Frequencies --   1110.7789              1126.4093              1181.8230
 Red. masses --      2.3674                 2.1571                 5.2496
 Frc consts  --      1.7210                 1.6125                 4.3200
 IR Inten    --     26.4672                 7.8584               111.1144

                     49                     50                     51
                      A                      A                      A
 Frequencies --   1196.5408              1224.3440              1241.7607
 Red. masses --      1.0806                 1.3890                 2.1857
 Frc consts  --      0.9116                 1.2267                 1.9857
 IR Inten    --      2.8572                 1.1585                23.6876

                     52                     53                     54
                      A                      A                      A
 Frequencies --   1305.4685              1350.7650              1355.8834
 Red. masses --      1.2193                 1.5462                 1.9103
 Frc consts  --      1.2243                 1.6621                 2.0692
 IR Inten    --     19.2431                14.6119                46.8515

                     55                     56                     57
                      A                      A                      A
 Frequencies --   1358.3351              1397.1842              1429.6330
 Red. masses --      1.5547                 1.6983                 1.0747
 Frc consts  --      1.6901                 1.9534                 1.2941
 IR Inten    --     16.9471                 0.2654                 6.0568

                     58                     59                     60
                      A                      A                      A
 Frequencies --   1460.4232              1525.8023              1561.8030
 Red. masses --      1.3743                 7.3670                 8.4604
 Frc consts  --      1.7270                10.1050                12.1589
 IR Inten    --     22.1252               273.4707                71.1943

                     61                     62                     63
                      A                      A                      A
 Frequencies --   1581.1273              1632.6806              1645.1849
 Red. masses --      8.0597                 5.8431                 5.7106
 Frc consts  --     11.8714                 9.1769                 9.1068
 IR Inten    --     35.9004                44.0634                20.0323

                     64                     65                     66
                      A                      A                      A
 Frequencies --   3106.5791              3130.0697              3182.5508
 Red. masses --      1.0860                 1.0861                 1.0840
 Frc consts  --      6.1750                 6.2695                 6.4689
 IR Inten    --      4.8169                 5.0911                 5.6485

                     67                     68                     69
                      A                      A                      A
 Frequencies --   3197.8110              3206.4886              3211.6143
 Red. masses --      1.0898                 1.0968                 1.0928
 Frc consts  --      6.5663                 6.6444                 6.6410
 IR Inten    --      0.9510                 4.5197                 8.8732

                     70                     71                     72
                      A                      A                      A
 Frequencies --   3228.6035              3352.5650              3519.7756
 Red. masses --      1.0826                 1.0735                 1.0755
 Frc consts  --      6.6488                 7.1090                 7.8507
 IR Inten    --      4.6949                14.1255                23.1085

 - Thermochemistry -
 -------------------
 Temperature   298.150 Kelvin.  Pressure   1.00000 Atm.
 Atom     1 has atomic number 16 and mass  31.97207

 Molecular mass:   298.96793 amu.
 Principal axes and moments of inertia in atomic units:
                           1         2         3
     Eigenvalues --  3546.383807732.375329416.01763
           X            0.99996  -0.00487   0.00775
           Y            0.00477   0.99992   0.01203
           Z           -0.00781  -0.01199   0.99990
 This molecule is an asymmetric top.
 Rotational symmetry number  1.
 Warning -- assumption of classical behavior for rotation
           may cause significant error
 Rotational temperatures (Kelvin)      0.02442     0.01120     0.00920
 Rotational constants (GHZ):           0.50890     0.23340     0.19167
 Zero-point vibrational energy     466547.8 (Joules/Mol)
                                  111.50760 (Kcal/Mol)
 Warning -- explicit consideration of  26 degrees of freedom as
           vibrations may cause significant error
 Vibrational temperatures:     39.11    61.74   100.19   133.16   185.18
          (Kelvin)            210.23   226.35   257.22   312.97   325.10
                              348.39   364.32   477.40   486.40   506.07
                              539.72   595.62   607.37   631.61   670.45
                              706.38   721.17   758.65   778.48   842.63
                              844.90   929.21   956.55   981.84  1023.79
                             1041.43  1061.00  1080.49  1109.24  1114.53
                             1231.05  1292.44  1305.57  1318.92  1345.34
                             1379.30  1386.04  1473.05  1482.50  1544.62
                             1598.16  1620.65  1700.38  1721.56  1761.56
                             1786.62  1878.28  1943.45  1950.81  1954.34
                             2010.24  2056.92  2101.22  2195.29  2247.09
                             2274.89  2349.06  2367.05  4469.67  4503.47
                             4578.98  4600.94  4613.42  4620.80  4645.24
                             4823.59  5064.17

 Zero-point correction=                           0.177699 (Hartree/Particle)
 Thermal correction to Energy=                    0.193742
 Thermal correction to Enthalpy=                  0.194686
 Thermal correction to Gibbs Free Energy=         0.133147
 Sum of electronic and zero-point Energies=          -2143.195624
 Sum of electronic and thermal Energies=             -2143.179581
 Sum of electronic and thermal Enthalpies=           -2143.178637
 Sum of electronic and thermal Free Energies=        -2143.240176

                     E (Thermal)             CV                S
                      KCal/Mol        Cal/Mol-Kelvin    Cal/Mol-Kelvin
 Total                  121.575             61.370            129.519
 Electronic               0.000              0.000              0.000
 Translational            0.889              2.981             42.982
 Rotational               0.889              2.981             33.912
 Vibrational            119.797             55.408             52.625
 Vibration     1          0.593              1.984              6.025
 Vibration     2          0.595              1.980              5.120
 Vibration     3          0.598              1.969              4.164
 Vibration     4          0.602              1.954              3.605
 Vibration     5          0.611              1.925              2.965
 Vibration     6          0.617              1.907              2.722
 Vibration     7          0.621              1.894              2.582
 Vibration     8          0.629              1.868              2.341
 Vibration     9          0.646              1.814              1.980
 Vibration    10          0.650              1.801              1.911
 Vibration    11          0.658              1.776              1.787
 Vibration    12          0.664              1.757              1.708
 Vibration    13          0.714              1.612              1.251
 Vibration    14          0.718              1.599              1.221
 Vibration    15          0.728              1.572              1.158
 Vibration    16          0.746              1.523              1.059
 Vibration    17          0.778              1.440              0.913
 Vibration    18          0.784              1.422              0.885
 Vibration    19          0.799              1.385              0.830
 Vibration    20          0.823              1.326              0.749
 Vibration    21          0.847              1.270              0.681
 Vibration    22          0.857              1.247              0.655
 Vibration    23          0.882              1.190              0.593
 Vibration    24          0.896              1.159              0.563
 Vibration    25          0.943              1.062              0.475
 Vibration    26          0.944              1.059              0.472

                           ! Non-Optimized Parameters !
 Normal termination of Gaussian 16 at Tue May 16 20:56:14 2023.
