 Gaussian 16, Revision A.03,
 Gaussian 16:  ES64L-G16RevA.03 25-Dec-2016

 -----------------------------
 # opt freq b3lyp/6-31g(2df,p)
 -----------------------------

 -------------------
 Title Card Required
 -------------------
 Symbolic Z-matrix:
 Charge =  0 Multiplicity = 1

 SCF Done:  E(RB3LYP) =  -1258.03226940     A.U. after   21 cycles
 SCF Done:  E(RB3LYP) =  -1258.10193196     A.U. after   16 cycles
 SCF Done:  E(RB3LYP) =  -1258.17544713     A.U. after   16 cycles
 SCF Done:  E(RB3LYP) =  -1258.22923918     A.U. after   15 cycles
 SCF Done:  E(RB3LYP) =  -1258.28484927     A.U. after   17 cycles
 SCF Done:  E(RB3LYP) =  -1258.31606152     A.U. after   17 cycles
 SCF Done:  E(RB3LYP) =  -1258.32807546     A.U. after   15 cycles
 SCF Done:  E(RB3LYP) =  -1258.33188323     A.U. after   15 cycles
 SCF Done:  E(RB3LYP) =  -1258.33540771     A.U. after   15 cycles
 SCF Done:  E(RB3LYP) =  -1258.33715412     A.U. after   14 cycles
 SCF Done:  E(RB3LYP) =  -1258.34148480     A.U. after   15 cycles
 SCF Done:  E(RB3LYP) =  -1258.34325687     A.U. after   15 cycles
 SCF Done:  E(RB3LYP) =  -1258.34427158     A.U. after   14 cycles
 SCF Done:  E(RB3LYP) =  -1258.34457406     A.U. after   14 cycles
 SCF Done:  E(RB3LYP) =  -1258.34459270     A.U. after   13 cycles
 SCF Done:  E(RB3LYP) =  -1258.34463078     A.U. after   13 cycles
 SCF Done:  E(RB3LYP) =  -1258.34463884     A.U. after   11 cycles
 SCF Done:  E(RB3LYP) =  -1258.34464144     A.U. after    9 cycles
 SCF Done:  E(RB3LYP) =  -1258.34464177     A.U. after    9 cycles
 Optimization completed.
    -- Stationary point found.
 Normal termination of Gaussian 16 at Wed May 17 17:37:16 2023.

 ----------------------------------------------------------------------
 #N Geom=AllCheck Guess=TCheck SCRF=Check GenChk RB3LYP/6-31G(2df,p) Fr
 eq
 ----------------------------------------------------------------------

 Structure from the checkpoint file:  "SdCc1cccc2cccc-2cc1dS.chk"
 -------------------
 Title Card Required
 -------------------
 Charge =  0 Multiplicity = 1

                         Standard orientation:
 ---------------------------------------------------------------------
 Center     Atomic      Atomic             Coordinates (Angstroms)
 Number     Number       Type             X           Y           Z
 ---------------------------------------------------------------------
      1         16           0        3.736517    0.003061    1.063340
      2          6           0        2.615916   -1.048665    0.511205
      3          6           0        1.352703   -0.832063   -0.174193
      4          6           0        0.608793   -1.939616   -0.505483
      5          6           0       -0.664924   -1.631081   -1.067952
      6          6           0       -1.812943   -1.865495   -0.364950
      7          6           0       -2.554700   -0.684642   -0.052306
      8          6           0       -3.843033   -0.502332    0.384479
      9          6           0       -4.038864    0.882060    0.739905
     10          6           0       -2.862832    1.555685    0.575501
     11          6           0       -1.844941    0.630185    0.103684
     12          6           0       -0.533868    1.042497    0.012494
     13          6           0        0.803183    0.534936   -0.402773
     14         16           0        1.783059    1.683736   -1.069399
     15          1           0        2.786956   -2.112400    0.697657
     16          1           0        0.906076   -2.933782   -0.181098
     17          1           0       -0.671406   -0.732415   -1.674854
     18          1           0       -1.998016   -2.795656    0.169423
     19          1           0       -4.601224   -1.272852    0.438655
     20          1           0       -4.972858    1.302068    1.088384
     21          1           0       -2.679230    2.601581    0.779363
     22          1           0       -0.430470    2.105895    0.221761
 ---------------------------------------------------------------------

 SCF Done:  E(RB3LYP) =  -1258.34464177     A.U. after    1 cycles

 The electronic state is 1-A.
 Alpha  occ. eigenvalues --  -88.86229 -88.85105 -10.26748 -10.24991 -10.23907
 Alpha  occ. eigenvalues --  -10.23864 -10.23114 -10.22729 -10.22567 -10.21410
 Alpha  occ. eigenvalues --  -10.21309 -10.20965 -10.20508 -10.20154  -7.92677
 Alpha  occ. eigenvalues --   -7.91610  -5.89029  -5.88933  -5.88181  -5.87901
 Alpha  occ. eigenvalues --   -5.87883  -5.87149  -0.89983  -0.87339  -0.82966
 Alpha  occ. eigenvalues --   -0.80458  -0.76449  -0.75727  -0.70907  -0.66551
 Alpha  occ. eigenvalues --   -0.64321  -0.61603  -0.58234  -0.56189  -0.54951
 Alpha  occ. eigenvalues --   -0.53532  -0.48744  -0.48119  -0.46837  -0.44026
 Alpha  occ. eigenvalues --   -0.43269  -0.41790  -0.41608  -0.39773  -0.38926
 Alpha  occ. eigenvalues --   -0.38541  -0.36804  -0.35850  -0.34592  -0.32550
 Alpha  occ. eigenvalues --   -0.30004  -0.26519  -0.25475  -0.23705  -0.21568
 Alpha  occ. eigenvalues --   -0.20208
 Alpha virt. eigenvalues --   -0.12000  -0.10200  -0.06432  -0.02390   0.03488
 Alpha virt. eigenvalues --    0.06046   0.07899   0.08578   0.09959   0.10740
 Alpha virt. eigenvalues --    0.10820   0.12419   0.13092   0.14997   0.15537

 Mulliken charges:
               1
     1  S   -0.259737
     2  C   -0.042540
     3  C    0.218471
     4  C   -0.153392
     5  C   -0.175235
     6  C   -0.166703
     7  C    0.195789
     8  C   -0.231067
     9  C   -0.112480
    10  C   -0.165634
    11  C    0.189712
    12  C   -0.140190
    13  C    0.089518
    14  S   -0.255688
    15  H    0.125637
    16  H    0.125924
    17  H    0.138680
    18  H    0.122638
    19  H    0.116035
    20  H    0.114271
    21  H    0.118786
    22  H    0.147206
 Sum of Mulliken charges =  -0.00000

 Dipole moment (field-independent basis, Debye):
    X=             -5.2443    Y=             -2.7235    Z=              0.4115  Tot=              5.9237
 Quadrupole moment (field-independent basis, Debye-Ang):
   XX=            -99.2912   YY=            -86.2157   ZZ=            -98.0610
   XY=             -3.5072   XZ=             -4.5990   YZ=              1.6501

  Exact polarizability: 342.724  14.368 173.619  -5.000   2.196 102.634
 Approx polarizability: 760.999 102.883 366.180 -25.634  17.502 204.318

                      1                      2                      3
                      A                      A                      A
 Frequencies --     40.5733                73.8164               107.1846
 Red. masses --     13.2382                 5.9567                 4.1511
 Frc consts  --      0.0128                 0.0191                 0.0281
 IR Inten    --      0.5374                 0.3259                 5.5218

                      4                      5                      6
                      A                      A                      A
 Frequencies --    129.0029               179.1260               212.9223
 Red. masses --      9.4089                 5.1654                 4.6039
 Frc consts  --      0.0923                 0.0976                 0.1230
 IR Inten    --     13.9239                12.1673                 1.4556

                      7                      8                      9
                      A                      A                      A
 Frequencies --    228.3920               267.5318               315.8147
 Red. masses --      6.5266                 2.9820                 4.6317
 Frc consts  --      0.2006                 0.1257                 0.2722
 IR Inten    --      0.3841                24.4508                 9.1116

                     10                     11                     12
                      A                      A                      A
 Frequencies --    365.2152               375.7762               391.3895
 Red. masses --      3.2659                 4.8324                 5.5445
 Frc consts  --      0.2567                 0.4020                 0.5004
 IR Inten    --      6.5302                 7.8352                17.8294

                     13                     14                     15
                      A                      A                      A
 Frequencies --    400.5987               479.1771               501.6004
 Red. masses --      3.0252                 6.9371                 4.5723
 Frc consts  --      0.2860                 0.9385                 0.6778
 IR Inten    --     10.4583                 5.8482                 1.3399

                     16                     17                     18
                      A                      A                      A
 Frequencies --    560.7391               626.9315               663.0856
 Red. masses --      2.8758                 4.7645                 4.6278
 Frc consts  --      0.5328                 1.1033                 1.1989
 IR Inten    --      2.2584                11.0681                14.8911

                     19                     20                     21
                      A                      A                      A
 Frequencies --    676.6598               699.1210               740.5756
 Red. masses --      3.6028                 3.3974                 5.2486
 Frc consts  --      0.9719                 0.9784                 1.6960
 IR Inten    --      6.4222                 6.3932                11.9813

                     22                     23                     24
                      A                      A                      A
 Frequencies --    779.5310               780.1908               811.3965
 Red. masses --      1.5357                 4.5412                 3.1961
 Frc consts  --      0.5498                 1.6286                 1.2398
 IR Inten    --     39.2894                 6.6560                12.3081

                     25                     26                     27
                      A                      A                      A
 Frequencies --    832.1734               857.2814               883.8968
 Red. masses --      1.8755                 1.5064                 1.6842
 Frc consts  --      0.7652                 0.6523                 0.7752
 IR Inten    --     67.0102                18.3414                44.6883

                     28                     29                     30
                      A                      A                      A
 Frequencies --    923.9114               930.3287               940.5477
 Red. masses --      1.7595                 1.4184                 1.5212
 Frc consts  --      0.8849                 0.7233                 0.7929
 IR Inten    --      5.1541                 1.7085                 2.5713

                     31                     32                     33
                      A                      A                      A
 Frequencies --   1008.1400              1024.8502              1051.7953
 Red. masses --      3.8722                 1.6860                 1.5131
 Frc consts  --      2.3187                 1.0434                 0.9862
 IR Inten    --      5.5527                11.2845                38.2787

                     34                     35                     36
                      A                      A                      A
 Frequencies --   1083.9292              1108.3517              1126.7384
 Red. masses --      2.8680                 1.3940                 3.2863
 Frc consts  --      1.9853                 1.0089                 2.4581
 IR Inten    --     44.5343                 7.2996                81.4230

                     37                     38                     39
                      A                      A                      A
 Frequencies --   1163.6705              1182.6297              1221.2991
 Red. masses --      1.6090                 3.3556                 3.1117
 Frc consts  --      1.2837                 2.7651                 2.7346
 IR Inten    --     44.0843                56.0173                76.4174

                     40                     41                     42
                      A                      A                      A
 Frequencies --   1238.5311              1276.8780              1297.8253
 Red. masses --      1.4636                 3.2772                 1.9148
 Frc consts  --      1.3228                 3.1482                 1.9002
 IR Inten    --      4.8678                 8.6094                24.9203

                     43                     44                     45
                      A                      A                      A
 Frequencies --   1312.7060              1354.7654              1382.1616
 Red. masses --      3.3034                 1.3071                 1.7503
 Frc consts  --      3.3538                 1.4134                 1.9701
 IR Inten    --    136.8267                26.0483                 9.0747

                     46                     47                     48
                      A                      A                      A
 Frequencies --   1402.1923              1421.9888              1467.6925
 Red. masses --      1.9116                 1.4230                 5.1526
 Frc consts  --      2.2145                 1.6953                 6.5396
 IR Inten    --     50.6105                 8.6067                24.4075

                     49                     50                     51
                      A                      A                      A
 Frequencies --   1524.4920              1556.5641              1587.7662
 Red. masses --      5.3227                 7.2656                 4.0794
 Frc consts  --      7.2884                10.3719                 6.0593
 IR Inten    --    161.7135                49.3784               159.9834

                     52                     53                     54
                      A                      A                      A
 Frequencies --   1606.2059              3074.5469              3142.3242
 Red. masses --      5.5629                 1.0853                 1.0849
 Frc consts  --      8.4558                 6.0445                 6.3119
 IR Inten    --     15.3536                15.0001                 0.9601

                     55                     56                     57
                      A                      A                      A
 Frequencies --   3143.0290              3162.5321              3172.0171
 Red. masses --      1.0893                 1.0899                 1.0849
 Frc consts  --      6.3399                 6.4226                 6.4313
 IR Inten    --     11.3845                 8.2766                 7.8225

                     58                     59                     60
                      A                      A                      A
 Frequencies --   3214.0866              3224.5971              3240.9920
 Red. masses --      1.0886                 1.0923                 1.1040
 Frc consts  --      6.6257                 6.6918                 6.8326
 IR Inten    --      4.6692                 5.6261                 9.7919

 - Thermochemistry -
 -------------------
 Temperature   298.150 Kelvin.  Pressure   1.00000 Atm.
 Atom     1 has atomic number 16 and mass  31.97207

 Molecular mass:   216.00674 amu.
 Principal axes and moments of inertia in atomic units:
                           1         2         3
     Eigenvalues --  1605.792815298.152386087.39757
           X            0.99993  -0.01015  -0.00571
           Y            0.01023   0.99985   0.01412
           Z            0.00557  -0.01418   0.99988
 This molecule is an asymmetric top.
 Rotational symmetry number  1.
 Warning -- assumption of classical behavior for rotation
           may cause significant error
 Rotational temperatures (Kelvin)      0.05394     0.01635     0.01423
 Rotational constants (GHZ):           1.12389     0.34064     0.29647
 Zero-point vibrational energy     416000.1 (Joules/Mol)
                                   99.42642 (Kcal/Mol)
 Warning -- explicit consideration of  16 degrees of freedom as
           vibrations may cause significant error
 Vibrational temperatures:     58.38   106.21   154.21   185.61   257.72
          (Kelvin)            306.35   328.61   384.92   454.39   525.46
                              540.66   563.12   576.37   689.43   721.69
                              806.78   902.01   954.03   973.56  1005.88
                             1065.52  1121.57  1122.52  1167.42  1197.31
                             1233.44  1271.73  1329.30  1338.54  1353.24
                             1450.49  1474.53  1513.30  1559.53  1594.67
                             1621.13  1674.26  1701.54  1757.18  1781.97
                             1837.14  1867.28  1888.69  1949.21  1988.62
                             2017.44  2045.92  2111.68  2193.40  2239.55
                             2284.44  2310.97  4423.59  4521.10  4522.12
                             4550.18  4563.83  4624.35  4639.48  4663.06

 Zero-point correction=                           0.158446 (Hartree/Particle)
 Thermal correction to Energy=                    0.170298
 Thermal correction to Enthalpy=                  0.171242
 Thermal correction to Gibbs Free Energy=         0.119423
 Sum of electronic and zero-point Energies=          -1258.186196
 Sum of electronic and thermal Energies=             -1258.174344
 Sum of electronic and thermal Enthalpies=           -1258.173400
 Sum of electronic and thermal Free Energies=        -1258.225219

                     E (Thermal)             CV                S
                      KCal/Mol        Cal/Mol-Kelvin    Cal/Mol-Kelvin
 Total                  106.863             45.614            109.063
 Electronic               0.000              0.000              0.000
 Translational            0.889              2.981             42.014
 Rotational               0.889              2.981             32.316
 Vibrational            105.086             39.652             34.734
 Vibration     1          0.594              1.981              5.231
 Vibration     2          0.599              1.966              4.049
 Vibration     3          0.606              1.943              3.319
 Vibration     4          0.611              1.924              2.961
 Vibration     5          0.629              1.868              2.338
 Vibration     6          0.644              1.821              2.018
 Vibration     7          0.651              1.798              1.892
 Vibration     8          0.673              1.733              1.612
 Vibration     9          0.703              1.643              1.332
 Vibration    10          0.738              1.544              1.100
 Vibration    11          0.747              1.522              1.056
 Vibration    12          0.759              1.489              0.995
 Vibration    13          0.766              1.469              0.960
 Vibration    14          0.836              1.296              0.712
 Vibration    15          0.857              1.246              0.654
 Vibration    16          0.916              1.116              0.522

                           ! Non-Optimized Parameters !
 Normal termination of Gaussian 16 at Wed May 17 19:05:48 2023.
