 Gaussian 16, Revision A.03,
 Gaussian 16:  ES64L-G16RevA.03 25-Dec-2016

 -----------------------------
 # opt freq b3lyp/6-31g(2df,p)
 -----------------------------

 -------------------
 Title Card Required
 -------------------
 Symbolic Z-matrix:
 Charge =  0 Multiplicity = 1

 SCF Done:  E(RB3LYP) =  -1651.63882155     A.U. after   21 cycles
 SCF Done:  E(RB3LYP) =  -1651.66421188     A.U. after   15 cycles
 SCF Done:  E(RB3LYP) =  -1651.66409991     A.U. after   16 cycles
 SCF Done:  E(RB3LYP) =  -1651.67324317     A.U. after   16 cycles
 SCF Done:  E(RB3LYP) =  -1651.67730245     A.U. after   15 cycles
 SCF Done:  E(RB3LYP) =  -1651.68327149     A.U. after   16 cycles
 SCF Done:  E(RB3LYP) =  -1651.68906367     A.U. after   15 cycles
 SCF Done:  E(RB3LYP) =  -1651.69644258     A.U. after   15 cycles
 SCF Done:  E(RB3LYP) =  -1651.70398006     A.U. after   17 cycles
 SCF Done:  E(RB3LYP) =  -1651.70564216     A.U. after   14 cycles
 SCF Done:  E(RB3LYP) =  -1651.70710723     A.U. after   11 cycles
 SCF Done:  E(RB3LYP) =  -1651.70713626     A.U. after   11 cycles
 SCF Done:  E(RB3LYP) =  -1651.70715117     A.U. after   10 cycles
 SCF Done:  E(RB3LYP) =  -1651.70716043     A.U. after   11 cycles
 SCF Done:  E(RB3LYP) =  -1651.70716309     A.U. after   11 cycles
 SCF Done:  E(RB3LYP) =  -1651.70716394     A.U. after   10 cycles
 SCF Done:  E(RB3LYP) =  -1651.70716407     A.U. after    8 cycles
 SCF Done:  E(RB3LYP) =  -1651.70716411     A.U. after    7 cycles
 SCF Done:  E(RB3LYP) =  -1651.70716411     A.U. after    7 cycles
 Optimization completed.
    -- Stationary point found.
 Normal termination of Gaussian 16 at Thu May 18 03:03:19 2023.

 ----------------------------------------------------------------------
 #N Geom=AllCheck Guess=TCheck SCRF=Check GenChk RB3LYP/6-31G(2df,p) Fr
 eq
 ----------------------------------------------------------------------

 Structure from the checkpoint file:  "SdCC1dCCdCCdCCdC1NdN[SH]dS.chk"
 -------------------
 Title Card Required
 -------------------
 Charge =  0 Multiplicity = 1

                         Standard orientation:
 ---------------------------------------------------------------------
 Center     Atomic      Atomic             Coordinates (Angstroms)
 Number     Number       Type             X           Y           Z
 ---------------------------------------------------------------------
      1         16           0        0.532775    3.346418    0.303792
      2          6           0        0.309195    1.749169    0.552629
      3          6           0        1.058749    0.631241   -0.035074
      4          6           0        2.032395    0.839761   -0.944412
      5          6           0        2.914963   -0.142109   -1.557730
      6          6           0        3.677879   -1.048912   -0.923235
      7          6           0        3.779358   -1.307091    0.515099
      8          6           0        2.787892   -1.544152    1.389175
      9          6           0        1.369018   -1.633919    1.068494
     10          6           0        0.628568   -0.735362    0.394397
     11          7           0       -0.709565   -1.161346    0.168896
     12          7           0       -1.417059   -0.389254   -0.488320
     13         16           0       -3.121072   -1.092764   -0.698909
     14         16           0       -4.382184    0.011954    0.325041
     15          1           0       -0.470864    1.443695    1.250883
     16          1           0        2.173808    1.872499   -1.265089
     17          1           0        3.072069   -0.018083   -2.628024
     18          1           0        4.391372   -1.604972   -1.529680
     19          1           0        4.798992   -1.406355    0.884786
     20          1           0        3.059311   -1.830763    2.403268
     21          1           0        0.843043   -2.524441    1.409143
     22          1           0       -2.801767   -2.178851    0.075858
 ---------------------------------------------------------------------

 SCF Done:  E(RB3LYP) =  -1651.70716411     A.U. after    1 cycles

 The electronic state is 1-A.
 Alpha  occ. eigenvalues --  -88.98095 -88.85757 -88.84323 -14.41952 -14.41865
 Alpha  occ. eigenvalues --  -10.25584 -10.25551 -10.23598 -10.22900 -10.22733
 Alpha  occ. eigenvalues --  -10.22704 -10.22506 -10.22475 -10.22264  -8.03627
 Alpha  occ. eigenvalues --   -7.92296  -7.90974  -6.00009  -5.99824  -5.99363
 Alpha  occ. eigenvalues --   -5.88614  -5.88565  -5.87803  -5.87643  -5.86789
 Alpha  occ. eigenvalues --   -5.86513  -1.07271  -0.88637  -0.84734  -0.83448
 Alpha  occ. eigenvalues --   -0.81752  -0.78297  -0.73893  -0.70682  -0.66920
 Alpha  occ. eigenvalues --   -0.63310  -0.61176  -0.58418  -0.56621  -0.53077
 Alpha  occ. eigenvalues --   -0.50797  -0.50275  -0.48814  -0.47552  -0.46226
 Alpha  occ. eigenvalues --   -0.44855  -0.44235  -0.42880  -0.41046  -0.39999
 Alpha  occ. eigenvalues --   -0.37817  -0.37181  -0.36389  -0.35182  -0.33224
 Alpha  occ. eigenvalues --   -0.30374  -0.28542  -0.27541  -0.24560  -0.23523
 Alpha  occ. eigenvalues --   -0.22242  -0.21473
 Alpha virt. eigenvalues --   -0.11539  -0.09657  -0.04714  -0.04202   0.00112
 Alpha virt. eigenvalues --    0.01213   0.01697   0.03065   0.06061   0.07740
 Alpha virt. eigenvalues --    0.10193   0.10392   0.12610   0.13874   0.15128

 Mulliken charges:
               1
     1  S   -0.260729
     2  C   -0.026032
     3  C    0.149348
     4  C   -0.128273
     5  C   -0.118163
     6  C   -0.091783
     7  C   -0.082537
     8  C   -0.125735
     9  C   -0.119519
    10  C    0.211137
    11  N   -0.176427
    12  N   -0.163030
    13  S    0.216245
    14  S   -0.342019
    15  H    0.145006
    16  H    0.151289
    17  H    0.118590
    18  H    0.116912
    19  H    0.119130
    20  H    0.119293
    21  H    0.127940
    22  H    0.159357
 Sum of Mulliken charges =  -0.00000

 Dipole moment (field-independent basis, Debye):
    X=              6.2688    Y=             -4.9980    Z=             -0.3822  Tot=              8.0265
 Quadrupole moment (field-independent basis, Debye-Ang):
   XX=           -106.2857   YY=           -105.4904   ZZ=            -96.9557
   XY=             -0.7912   XZ=              0.2421   YZ=             -2.9455

  Exact polarizability: 274.983 -37.963 179.841  -9.920  -4.418 127.176
 Approx polarizability: 423.364 -93.154 324.795 -23.141 -11.367 240.592

                      1                      2                      3
                      A                      A                      A
 Frequencies --     26.4724                35.0635                53.5499
 Red. masses --     10.0885                14.6723                 9.4752
 Frc consts  --      0.0042                 0.0106                 0.0160
 IR Inten    --      1.2274                 0.6013                 2.4447

                      4                      5                      6
                      A                      A                      A
 Frequencies --     68.8511               104.2580               151.8935
 Red. masses --      6.5657                 6.1400                 5.4225
 Frc consts  --      0.0183                 0.0393                 0.0737
 IR Inten    --      0.3457                 0.2234                 2.9246

                      7                      8                      9
                      A                      A                      A
 Frequencies --    169.3895               195.7529               205.2402
 Red. masses --      3.8876                 4.1195                 5.3487
 Frc consts  --      0.0657                 0.0930                 0.1327
 IR Inten    --      2.2226                 6.9011                 0.5762

                     10                     11                     12
                      A                      A                      A
 Frequencies --    237.8986               260.4500               266.6255
 Red. masses --      5.6760                 6.2788                 5.5255
 Frc consts  --      0.1893                 0.2509                 0.2314
 IR Inten    --      1.8189                 0.9976                 0.8129

                     13                     14                     15
                      A                      A                      A
 Frequencies --    322.0754               335.2317               366.7079
 Red. masses --      6.2221                 6.4627                 2.9401
 Frc consts  --      0.3803                 0.4279                 0.2329
 IR Inten    --      6.1139                 0.5983                 0.9635

                     16                     17                     18
                      A                      A                      A
 Frequencies --    402.2788               499.5070               548.4931
 Red. masses --      4.2329                 4.6332                 5.9461
 Frc consts  --      0.4036                 0.6811                 1.0540
 IR Inten    --      1.5671                 5.9387                11.1388

                     19                     20                     21
                      A                      A                      A
 Frequencies --    571.4978               605.4154               642.2445
 Red. masses --      4.9334                16.0008                 3.3252
 Frc consts  --      0.9493                 3.4554                 0.8081
 IR Inten    --      8.8298                77.8567                 6.0344

                     22                     23                     24
                      A                      A                      A
 Frequencies --    671.0635               715.3457               724.7157
 Red. masses --      3.1123                 2.2934                 2.7693
 Frc consts  --      0.8258                 0.6914                 0.8569
 IR Inten    --     11.3475                14.5476                13.4791

                     25                     26                     27
                      A                      A                      A
 Frequencies --    770.4183               812.4430               845.3818
 Red. masses --      1.9704                 2.1091                 1.9770
 Frc consts  --      0.6891                 0.8202                 0.8325
 IR Inten    --     18.4180                28.4410                11.1570

                     28                     29                     30
                      A                      A                      A
 Frequencies --    885.4403               898.7316               934.0734
 Red. masses --      1.6237                 1.6731                 2.1069
 Frc consts  --      0.7500                 0.7962                 1.0831
 IR Inten    --     10.8850                 4.9614                33.6628

                     31                     32                     33
                      A                      A                      A
 Frequencies --    941.2666               950.8067               960.4840
 Red. masses --      1.9121                 1.6590                 1.7083
 Frc consts  --      0.9981                 0.8837                 0.9285
 IR Inten    --     13.0798                10.1989                 5.2602

                     34                     35                     36
                      A                      A                      A
 Frequencies --    998.4508               999.4249              1012.1561
 Red. masses --      1.2980                 1.5562                 2.6241
 Frc consts  --      0.7624                 0.9158                 1.5839
 IR Inten    --      3.0510                 4.1432                15.8169

                     37                     38                     39
                      A                      A                      A
 Frequencies --   1048.6604              1080.1322              1130.2840
 Red. masses --      3.0954                 2.0243                 4.2029
 Frc consts  --      2.0056                 1.3915                 3.1635
 IR Inten    --      5.0940                 0.4874                16.6941

                     40                     41                     42
                      A                      A                      A
 Frequencies --   1184.6815              1250.0082              1258.8237
 Red. masses --      2.5077                 1.0931                 1.1335
 Frc consts  --      2.0736                 1.0063                 1.0583
 IR Inten    --    104.5552                 0.0771                 4.8763

                     43                     44                     45
                      A                      A                      A
 Frequencies --   1299.5268              1357.1941              1408.1464
 Red. masses --      1.3633                 1.4623                 1.5608
 Frc consts  --      1.3565                 1.5870                 1.8234
 IR Inten    --     30.9066                15.3952                19.3853

                     46                     47                     48
                      A                      A                      A
 Frequencies --   1418.3236              1456.0223              1530.4778
 Red. masses --      1.4803                 1.7638                12.5494
 Frc consts  --      1.7545                 2.2031                17.3191
 IR Inten    --     10.2685                 2.2294                11.1716

                     49                     50                     51
                      A                      A                      A
 Frequencies --   1659.8938              1673.6287              1682.9935
 Red. masses --      7.3762                 8.0392                 5.6306
 Frc consts  --     11.9741                13.2672                 9.3965
 IR Inten    --     29.3586                 0.9367                 2.8195

                     52                     53                     54
                      A                      A                      A
 Frequencies --   1706.2138              2423.8461              3115.1812
 Red. masses --     10.0567                 1.0392                 1.0867
 Frc consts  --     17.2494                 3.5972                 6.2136
 IR Inten    --     72.3678                22.8077                10.7494

                     55                     56                     57
                      A                      A                      A
 Frequencies --   3123.1933              3127.8235              3134.1705
 Red. masses --      1.0847                 1.0824                 1.0826
 Frc consts  --      6.2339                 6.2390                 6.2657
 IR Inten    --      0.3395                 0.3396                 1.2922

                     58                     59                     60
                      A                      A                      A
 Frequencies --   3143.8900              3149.8251              3156.6019
 Red. masses --      1.0869                 1.0919                 1.0933
 Frc consts  --      6.3298                 6.3825                 6.4186
 IR Inten    --      4.1291                21.4775                24.9226

 - Thermochemistry -
 -------------------
 Temperature   298.150 Kelvin.  Pressure   1.00000 Atm.
 Atom     1 has atomic number 16 and mass  31.97207

 Molecular mass:   239.98496 amu.
 Principal axes and moments of inertia in atomic units:
                           1         2         3
     Eigenvalues --  2625.498036452.136398061.24682
           X            0.99993  -0.01149  -0.00345
           Y            0.01144   0.99980  -0.01618
           Z            0.00364   0.01614   0.99986
 This molecule is an asymmetric top.
 Rotational symmetry number  1.
 Warning -- assumption of classical behavior for rotation
           may cause significant error
 Rotational temperatures (Kelvin)      0.03299     0.01342     0.01074
 Rotational constants (GHZ):           0.68739     0.27971     0.22388
 Zero-point vibrational energy     393025.0 (Joules/Mol)
                                   93.93522 (Kcal/Mol)
 Warning -- explicit consideration of  20 degrees of freedom as
           vibrations may cause significant error
 Vibrational temperatures:     38.09    50.45    77.05    99.06   150.00
          (Kelvin)            218.54   243.71   281.64   295.29   342.28
                              374.73   383.61   463.39   482.32   527.61
                              578.79   718.68   789.16   822.26   871.06
                              924.05   965.51  1029.22  1042.70  1108.46
                             1168.92  1216.32  1273.95  1293.07  1343.92
                             1354.27  1368.00  1381.92  1436.55  1437.95
                             1456.27  1508.79  1554.07  1626.23  1704.49
                             1798.48  1811.17  1869.73  1952.70  2026.01
                             2040.65  2094.89  2202.02  2388.22  2407.98
                             2421.45  2454.86  3487.37  4482.05  4493.58
                             4500.24  4509.37  4523.36  4531.90  4541.65

 Zero-point correction=                           0.149695 (Hartree/Particle)
 Thermal correction to Energy=                    0.163890
 Thermal correction to Enthalpy=                  0.164834
 Thermal correction to Gibbs Free Energy=         0.105926
 Sum of electronic and zero-point Energies=          -1651.557469
 Sum of electronic and thermal Energies=             -1651.543274
 Sum of electronic and thermal Enthalpies=           -1651.542330
 Sum of electronic and thermal Free Energies=        -1651.601238

                     E (Thermal)             CV                S
                      KCal/Mol        Cal/Mol-Kelvin    Cal/Mol-Kelvin
 Total                  102.842             50.740            123.983
 Electronic               0.000              0.000              0.000
 Translational            0.889              2.981             42.327
 Rotational               0.889              2.981             33.279
 Vibrational            101.065             44.778             48.376
 Vibration     1          0.593              1.985              6.078
 Vibration     2          0.594              1.982              5.520
 Vibration     3          0.596              1.976              4.682
 Vibration     4          0.598              1.969              4.186
 Vibration     5          0.605              1.946              3.373
 Vibration     6          0.619              1.901              2.648
 Vibration     7          0.625              1.880              2.442
 Vibration     8          0.636              1.846              2.173
 Vibration     9          0.640              1.832              2.086
 Vibration    10          0.656              1.783              1.819
 Vibration    11          0.668              1.745              1.659
 Vibration    12          0.672              1.734              1.618
 Vibration    13          0.707              1.631              1.300
 Vibration    14          0.716              1.605              1.235
 Vibration    15          0.740              1.541              1.094
 Vibration    16          0.768              1.465              0.954
 Vibration    17          0.855              1.251              0.659
 Vibration    18          0.904              1.143              0.547
 Vibration    19          0.928              1.093              0.501
 Vibration    20          0.964              1.020              0.440

 Optimization completed.
    -- Stationary point found.
 Normal termination of Gaussian 16 at Thu May 18 04:20:22 2023.
