 Gaussian 16, Revision A.03,
 Gaussian 16:  ES64L-G16RevA.03 25-Dec-2016

 -----------------------------
 # opt freq b3lyp/6-31g(2df,p)
 -----------------------------

 -------------------
 Title Card Required
 -------------------
 Symbolic Z-matrix:
 Charge =  0 Multiplicity = 1

 SCF Done:  E(RB3LYP) =  -1579.20320715     A.U. after   17 cycles
 SCF Done:  E(RB3LYP) =  -1579.21807406     A.U. after   15 cycles
 SCF Done:  E(RB3LYP) =  -1579.22015515     A.U. after   15 cycles
 SCF Done:  E(RB3LYP) =  -1579.22078408     A.U. after   15 cycles
 SCF Done:  E(RB3LYP) =  -1579.22280446     A.U. after   14 cycles
 SCF Done:  E(RB3LYP) =  -1579.22304803     A.U. after   14 cycles
 SCF Done:  E(RB3LYP) =  -1579.22195742     A.U. after   15 cycles
 SCF Done:  E(RB3LYP) =  -1579.22312674     A.U. after   13 cycles
 SCF Done:  E(RB3LYP) =  -1579.22312883     A.U. after   11 cycles
 SCF Done:  E(RB3LYP) =  -1579.22313320     A.U. after   10 cycles
 SCF Done:  E(RB3LYP) =  -1579.22313330     A.U. after    7 cycles
 Optimization completed.
    -- Stationary point found.
 Normal termination of Gaussian 16 at Sat May 20 15:29:52 2023.

 ----------------------------------------------------------------------
 #N Geom=AllCheck Guess=TCheck SCRF=Check GenChk RB3LYP/6-31G(2df,p) Fr
 eq
 ----------------------------------------------------------------------

 Structure from the checkpoint file:  "SdCc1ccsc2cqCdSrccc1-2.chk"
 -------------------
 Title Card Required
 -------------------
 Charge =  0 Multiplicity = 1

                         Standard orientation:
 ---------------------------------------------------------------------
 Center     Atomic      Atomic             Coordinates (Angstroms)
 Number     Number       Type             X           Y           Z
 ---------------------------------------------------------------------
      1         16           0       -4.500812    0.066086   -0.000014
      2          6           0       -3.002914    0.708988   -0.000276
      3          6           0       -1.728185   -0.009408   -0.000088
      4          6           0       -1.716780   -1.431889    0.000019
      5          6           0       -0.583788   -2.184728    0.000127
      6         16           0        1.030571   -1.597065    0.000076
      7          6           0        0.783534    0.092216    0.000047
      8          6           0        1.758265    1.100980    0.000029
      9          6           0        3.165892    0.968713   -0.000055
     10         16           0        4.029485   -0.439708   -0.000131
     11          6           0        1.032790    2.358471    0.000140
     12          6           0       -0.315624    2.141578    0.000154
     13          6           0       -0.540312    0.720463    0.000055
     14          1           0       -2.908225    1.793429   -0.000543
     15          1           0       -2.679749   -1.931243   -0.000016
     16          1           0       -0.628273   -3.268108    0.000229
     17          1           0        3.710542    1.916231   -0.000064
     18          1           0        1.520347    3.325216    0.000177
     19          1           0       -1.079821    2.903152    0.000401
 ---------------------------------------------------------------------

 SCF Done:  E(RB3LYP) =  -1579.22313330     A.U. after    1 cycles

 The electronic state is 1-A.
 Alpha  occ. eigenvalues --  -88.95322 -88.88090 -88.84115 -10.27209 -10.25330
 Alpha  occ. eigenvalues --  -10.24859 -10.24856 -10.24066 -10.24009 -10.22706
 Alpha  occ. eigenvalues --  -10.21317 -10.20624 -10.19920  -8.01234  -7.94603
 Alpha  occ. eigenvalues --   -7.90650  -5.97605  -5.97191  -5.97136  -5.90972
 Alpha  occ. eigenvalues --   -5.90853  -5.90084  -5.86956  -5.86882  -5.86211
 Alpha  occ. eigenvalues --   -0.92230  -0.86693  -0.84907  -0.79936  -0.77734
 Alpha  occ. eigenvalues --   -0.75328  -0.70920  -0.66978  -0.63409  -0.60630
 Alpha  occ. eigenvalues --   -0.58388  -0.54786  -0.52254  -0.50162  -0.48773
 Alpha  occ. eigenvalues --   -0.45403  -0.43608  -0.43460  -0.43100  -0.40670
 Alpha  occ. eigenvalues --   -0.39913  -0.38418  -0.37663  -0.36271  -0.35990
 Alpha  occ. eigenvalues --   -0.35102  -0.31431  -0.29211  -0.25520  -0.24368
 Alpha  occ. eigenvalues --   -0.21802  -0.21209
 Alpha virt. eigenvalues --   -0.13807  -0.07580  -0.05990   0.00128   0.02549
 Alpha virt. eigenvalues --    0.06757   0.07334   0.08214   0.08620   0.09844
 Alpha virt. eigenvalues --    0.10443   0.11952   0.12847   0.14302   0.15533

 Mulliken charges:
               1
     1  S   -0.228700
     2  C   -0.048524
     3  C    0.158002
     4  C   -0.140115
     5  C   -0.174316
     6  S    0.121833
     7  C    0.019826
     8  C    0.155937
     9  C   -0.076306
    10  S   -0.336956
    11  C   -0.163871
    12  C   -0.256757
    13  C    0.172287
    14  H    0.141147
    15  H    0.150681
    16  H    0.149935
    17  H    0.118201
    18  H    0.121638
    19  H    0.116060
 Sum of Mulliken charges =  -0.00000

 Dipole moment (field-independent basis, Debye):
    X=             -2.2742    Y=              0.5136    Z=              0.0002  Tot=              2.3315
 Quadrupole moment (field-independent basis, Debye-Ang):
   XX=           -120.6539   YY=            -81.5338   ZZ=            -97.1774
   XY=              5.9172   XZ=              0.0010   YZ=             -0.0000

  Exact polarizability: 336.469  12.363 175.585  -0.003  -0.000  69.007
 Approx polarizability: 633.828  47.894 369.867  -0.007  -0.001 125.977

                      1                      2                      3
                      A                      A                      A
 Frequencies --     41.0898                92.1105               115.7811
 Red. masses --     13.7934                 5.4710                17.9075
 Frc consts  --      0.0137                 0.0273                 0.1414
 IR Inten    --      3.4820                 0.2792                 3.4155

                      4                      5                      6
                      A                      A                      A
 Frequencies --    131.5217               167.0290               168.9342
 Red. masses --      4.1040                10.4530                 3.3962
 Frc consts  --      0.0418                 0.1718                 0.0571
 IR Inten    --      0.5213                 5.0546                 2.9633

                      7                      8                      9
                      A                      A                      A
 Frequencies --    242.8362               260.3916               327.9504
 Red. masses --      4.6541                15.2306                 3.0777
 Frc consts  --      0.1617                 0.6084                 0.1950
 IR Inten    --      4.3401                 1.2216                 0.0065

                     10                     11                     12
                      A                      A                      A
 Frequencies --    363.1323               407.6819               413.0884
 Red. masses --     11.9690                 4.0945                 9.5891
 Frc consts  --      0.9299                 0.4009                 0.9641
 IR Inten    --      3.7396                 0.0001                 2.0564

                     13                     14                     15
                      A                      A                      A
 Frequencies --    459.5782               517.8985               576.1945
 Red. masses --      5.2298                 8.7369                 3.4396
 Frc consts  --      0.6508                 1.3807                 0.6728
 IR Inten    --      3.0427                 3.1988                 0.8237

                     16                     17                     18
                      A                      A                      A
 Frequencies --    647.8878               656.0517               696.5434
 Red. masses --      3.8778                 7.0749                 7.0391
 Frc consts  --      0.9590                 1.7941                 2.0122
 IR Inten    --     11.5447                 1.4292                 4.3523

                     19                     20                     21
                      A                      A                      A
 Frequencies --    703.3623               749.9134               778.4514
 Red. masses --      1.7368                 6.2724                 1.4861
 Frc consts  --      0.5062                 2.0783                 0.5306
 IR Inten    --      4.0442                96.7993                35.6426

                     22                     23                     24
                      A                      A                      A
 Frequencies --    793.4955               802.7202               897.6673
 Red. masses --      5.3257                 1.9177                 1.4948
 Frc consts  --      1.9757                 0.7281                 0.7097
 IR Inten    --      9.5739                 0.7017                 0.0165

                     25                     26                     27
                      A                      A                      A
 Frequencies --    908.8938               920.0734               936.8204
 Red. masses --      1.7374                 5.2891                 1.5557
 Frc consts  --      0.8456                 2.6380                 0.8044
 IR Inten    --     18.2232                23.7166                 5.4148

                     28                     29                     30
                      A                      A                      A
 Frequencies --    981.0532               981.1876              1069.4836
 Red. masses --      1.2905                 5.2023                 3.1730
 Frc consts  --      0.7318                 2.9508                 2.1383
 IR Inten    --      1.2765               102.4231                36.9452

                     31                     32                     33
                      A                      A                      A
 Frequencies --   1087.4578              1123.4910              1136.5059
 Red. masses --      3.0838                 1.5438                 2.0337
 Frc consts  --      2.1486                 1.1481                 1.5477
 IR Inten    --     35.7875                38.6485                 9.0218

                     34                     35                     36
                      A                      A                      A
 Frequencies --   1200.8603              1210.2471              1244.4389
 Red. masses --      2.0813                 1.8212                 1.6920
 Frc consts  --      1.7683                 1.5717                 1.5438
 IR Inten    --    123.8672                74.6588                10.4386

                     37                     38                     39
                      A                      A                      A
 Frequencies --   1297.6983              1350.4331              1382.1593
 Red. masses --      3.3366                 1.7558                 2.0754
 Frc consts  --      3.3105                 1.8866                 2.3360
 IR Inten    --      9.0983               197.2720                 8.8432

                     40                     41                     42
                      A                      A                      A
 Frequencies --   1407.4021              1417.4300              1470.1224
 Red. masses --      2.8115                 2.2127                 4.0122
 Frc consts  --      3.2812                 2.6193                 5.1090
 IR Inten    --     84.5858                47.6340                61.2704

                     43                     44                     45
                      A                      A                      A
 Frequencies --   1519.8689              1562.1218              1598.6430
 Red. masses --      6.9879                 5.9759                 6.1905
 Frc consts  --      9.5106                 8.5918                 9.3214
 IR Inten    --    247.9604                54.5804                17.2009

                     46                     47                     48
                      A                      A                      A
 Frequencies --   3084.5148              3138.8259              3186.0796
 Red. masses --      1.0862                 1.0861                 1.0852
 Frc consts  --      6.0891                 6.3047                 6.4906
 IR Inten    --     23.6087                 4.2860                 4.6485

                     49                     50                     51
                      A                      A                      A
 Frequencies --   3204.0403              3216.8049              3252.3666
 Red. masses --      1.0937                 1.0909                 1.0985
 Frc consts  --      6.6151                 6.6507                 6.8462
 IR Inten    --      0.4659                 2.4707                 2.5553

 - Thermochemistry -
 -------------------
 Temperature   298.150 Kelvin.  Pressure   1.00000 Atm.
 Atom     1 has atomic number 16 and mass  31.97207

 Molecular mass:   221.96317 amu.
 Principal axes and moments of inertia in atomic units:
                           1         2         3
     Eigenvalues --  1323.494235714.090637037.58483
           X            0.99996   0.00879   0.00000
           Y           -0.00879   0.99996  -0.00000
           Z           -0.00000   0.00000   1.00000
 This molecule is an asymmetric top.
 Rotational symmetry number  1.
 Warning -- assumption of classical behavior for rotation
           may cause significant error
 Rotational temperatures (Kelvin)      0.06544     0.01516     0.01231
 Rotational constants (GHZ):           1.36362     0.31584     0.25644
 Zero-point vibrational energy     334358.3 (Joules/Mol)
                                   79.91354 (Kcal/Mol)
 Warning -- explicit consideration of  15 degrees of freedom as
           vibrations may cause significant error
 Vibrational temperatures:     59.12   132.53   166.58   189.23   240.32
          (Kelvin)            243.06   349.39   374.65   471.85   522.47
                              586.56   594.34   661.23   745.14   829.02
                              932.17   943.91  1002.17  1011.98  1078.96
                             1120.02  1141.66  1154.94  1291.54  1307.70
                             1323.78  1347.88  1411.52  1411.71  1538.75
                             1564.61  1616.45  1635.18  1727.77  1741.28
                             1790.47  1867.10  1942.97  1988.62  2024.94
                             2039.37  2115.18  2186.75  2247.54  2300.09
                             4437.93  4516.07  4584.06  4609.90  4628.26
                             4679.43

 Zero-point correction=                           0.127350 (Hartree/Particle)
 Thermal correction to Energy=                    0.138651
 Thermal correction to Enthalpy=                  0.139595
 Thermal correction to Gibbs Free Energy=         0.088619
 Sum of electronic and zero-point Energies=          -1579.095783
 Sum of electronic and thermal Energies=             -1579.084482
 Sum of electronic and thermal Enthalpies=           -1579.083538
 Sum of electronic and thermal Free Energies=        -1579.134515

                     E (Thermal)             CV                S
                      KCal/Mol        Cal/Mol-Kelvin    Cal/Mol-Kelvin
 Total                   87.005             42.231            107.290
 Electronic               0.000              0.000              0.000
 Translational            0.889              2.981             42.095
 Rotational               0.889              2.981             32.343
 Vibrational             85.228             36.269             32.853
 Vibration     1          0.594              1.981              5.206
 Vibration     2          0.602              1.955              3.615
 Vibration     3          0.608              1.936              3.170
 Vibration     4          0.612              1.922              2.924
 Vibration     5          0.624              1.883              2.469
 Vibration     6          0.625              1.881              2.447
 Vibration     7          0.659              1.775              1.782
 Vibration     8          0.668              1.745              1.659
 Vibration     9          0.711              1.620              1.270
 Vibration    10          0.737              1.548              1.109
 Vibration    11          0.772              1.454              0.935
 Vibration    12          0.777              1.442              0.916
 Vibration    13          0.818              1.340              0.767
 Vibration    14          0.873              1.210              0.615
 Vibration    15          0.933              1.083              0.492

 Optimization completed.
    -- Stationary point found.
 Normal termination of Gaussian 16 at Sat May 20 16:22:03 2023.
