 Gaussian 16, Revision A.03,
 Gaussian 16:  ES64L-G16RevA.03 25-Dec-2016

 -----------------------------
 # opt freq b3lyp/6-31g(2df,p)
 -----------------------------

 -------------------
 Title Card Required
 -------------------
 Symbolic Z-matrix:
 Charge =  0 Multiplicity = 1

 SCF Done:  E(RB3LYP) =  -1536.01896695     A.U. after   21 cycles
 SCF Done:  E(RB3LYP) =  -1536.07575708     A.U. after   16 cycles
 SCF Done:  E(RB3LYP) =  -1536.11839701     A.U. after   15 cycles
 SCF Done:  E(RB3LYP) =  -1536.15663643     A.U. after   14 cycles
 SCF Done:  E(RB3LYP) =  -1536.18201122     A.U. after   14 cycles
 SCF Done:  E(RB3LYP) =  -1536.18973465     A.U. after   13 cycles
 SCF Done:  E(RB3LYP) =  -1536.19368609     A.U. after   14 cycles
 SCF Done:  E(RB3LYP) =  -1536.19474796     A.U. after   13 cycles
 SCF Done:  E(RB3LYP) =  -1536.19551938     A.U. after   12 cycles
 SCF Done:  E(RB3LYP) =  -1536.19605776     A.U. after   13 cycles
 SCF Done:  E(RB3LYP) =  -1536.19654523     A.U. after   12 cycles
 SCF Done:  E(RB3LYP) =  -1536.19658284     A.U. after   12 cycles
 SCF Done:  E(RB3LYP) =  -1536.19662466     A.U. after   10 cycles
 SCF Done:  E(RB3LYP) =  -1536.19667094     A.U. after   10 cycles
 SCF Done:  E(RB3LYP) =  -1536.19671499     A.U. after   10 cycles
 SCF Done:  E(RB3LYP) =  -1536.19673302     A.U. after   11 cycles
 SCF Done:  E(RB3LYP) =  -1536.19673638     A.U. after    9 cycles
 SCF Done:  E(RB3LYP) =  -1536.19673907     A.U. after   10 cycles
 SCF Done:  E(RB3LYP) =  -1536.19673962     A.U. after    8 cycles
 Optimization completed.
    -- Stationary point found.
 Normal termination of Gaussian 16 at Fri May 19 09:37:23 2023.

 ----------------------------------------------------------------------
 #N Geom=AllCheck Guess=TCheck SCRF=Check GenChk RB3LYP/6-31G(2df,p) Fr
 eq
 ----------------------------------------------------------------------

 Structure from the checkpoint file:  "SN1CdCS2dCC2dCNdCS1.chk"
 -------------------
 Title Card Required
 -------------------
 Charge =  0 Multiplicity = 1

                         Standard orientation:
 ---------------------------------------------------------------------
 Center     Atomic      Atomic             Coordinates (Angstroms)
 Number     Number       Type             X           Y           Z
 ---------------------------------------------------------------------
      1         16           0       -2.351416   -1.370348   -0.974199
      2          7           0       -1.223034   -0.840018    0.195640
      3          6           0        0.122318   -1.231941    0.062171
      4          6           0        1.107219   -0.979148    0.928766
      5         16           0        2.775286   -1.016266    0.346751
      6          6           0        2.747511    0.568115   -0.534798
      7          6           0        1.642585    1.134914   -0.926467
      8          6           0        0.432103    1.560118   -1.195910
      9          7           0       -0.338459    2.374261   -0.337885
     10          6           0       -1.111580    1.987702    0.578843
     11         16           0       -1.670951    0.417271    1.259774
     12          1           0       -2.140193   -0.431117   -1.932903
     13          1           0        0.325327   -1.724522   -0.882361
     14          1           0        0.931561   -0.479125    1.874207
     15          1           0        3.735974    0.999340   -0.664843
     16          1           0       -0.003146    1.419570   -2.186770
     17          1           0       -1.606711    2.747073    1.195529
 ---------------------------------------------------------------------

 SCF Done:  E(RB3LYP) =  -1536.19673962     A.U. after    1 cycles

 The electronic state is 1-A.
 Alpha  occ. eigenvalues --  -88.93814 -88.92732 -88.88728 -14.41498 -14.35570
 Alpha  occ. eigenvalues --  -10.27761 -10.24536 -10.23754 -10.22355 -10.20488
 Alpha  occ. eigenvalues --  -10.19066  -7.99669  -7.98885  -7.94824  -5.96301
 Alpha  occ. eigenvalues --   -5.95724  -5.95511  -5.95204  -5.94984  -5.94312
 Alpha  occ. eigenvalues --   -5.91320  -5.90961  -5.90392  -0.98161  -0.94784
 Alpha  occ. eigenvalues --   -0.83293  -0.79342  -0.77709  -0.75392  -0.69606
 Alpha  occ. eigenvalues --   -0.67000  -0.60637  -0.57908  -0.52958  -0.51844
 Alpha  occ. eigenvalues --   -0.50669  -0.48468  -0.47071  -0.45154  -0.44079
 Alpha  occ. eigenvalues --   -0.41314  -0.38144  -0.36591  -0.35775  -0.34882
 Alpha  occ. eigenvalues --   -0.31748  -0.30906  -0.28946  -0.26278  -0.23872
 Alpha  occ. eigenvalues --   -0.22792  -0.21733
 Alpha virt. eigenvalues --   -0.05010  -0.02845  -0.01546  -0.00481   0.00402
 Alpha virt. eigenvalues --    0.01842   0.04011   0.05827   0.06295   0.10869
 Alpha virt. eigenvalues --    0.11336   0.12419   0.14725   0.15737   0.17296

 Mulliken charges:
               1
     1  S   -0.136943
     2  N   -0.092599
     3  C    0.076286
     4  C   -0.178140
     5  S   -0.121349
     6  C   -0.306918
     7  C    0.328741
     8  C   -0.254681
     9  N   -0.134330
    10  C   -0.013612
    11  S   -0.011078
    12  H    0.150797
    13  H    0.149649
    14  H    0.134685
    15  H    0.139883
    16  H    0.125180
    17  H    0.144430
 Sum of Mulliken charges =  -0.00000

 Dipole moment (field-independent basis, Debye):
    X=             -1.5591    Y=              0.6772    Z=             -0.8019  Tot=              1.8795
 Quadrupole moment (field-independent basis, Debye-Ang):
   XX=            -86.3647   YY=            -88.5735   ZZ=            -80.2296
   XY=              0.4075   XZ=              0.1664   YZ=              2.3416

  Exact polarizability: 165.722  -8.585 119.676   2.468  -3.467 105.223
 Approx polarizability: 275.028 -20.344 214.773  11.052 -23.530 196.660

                      1                      2                      3
                      A                      A                      A
 Frequencies --     56.9595                74.0170               135.4748
 Red. masses --      8.5937                 5.0281                 9.1294
 Frc consts  --      0.0164                 0.0162                 0.0987
 IR Inten    --      1.0301                 0.8171                 0.4657

                      4                      5                      6
                      A                      A                      A
 Frequencies --    137.3668               162.9860               207.3597
 Red. masses --      4.1916                 3.7839                 3.2115
 Frc consts  --      0.0466                 0.0592                 0.0814
 IR Inten    --      0.7389                 4.8457                 5.8308

                      7                      8                      9
                      A                      A                      A
 Frequencies --    244.4362               269.6054               300.7422
 Red. masses --      7.1125                 5.1491                 1.6724
 Frc consts  --      0.2504                 0.2205                 0.0891
 IR Inten    --      5.0010                 0.9577                 3.6688

                     10                     11                     12
                      A                      A                      A
 Frequencies --    337.5413               349.7927               389.6272
 Red. masses --      2.0528                 7.0036                 6.1023
 Frc consts  --      0.1378                 0.5049                 0.5458
 IR Inten    --      2.4793                13.4602                11.4913

                     13                     14                     15
                      A                      A                      A
 Frequencies --    402.6133               423.8619               504.1427
 Red. masses --      6.0069                 5.2606                 9.9353
 Frc consts  --      0.5737                 0.5568                 1.4878
 IR Inten    --      1.1073                 2.9691                 3.0649

                     16                     17                     18
                      A                      A                      A
 Frequencies --    553.2827               614.5613               647.1446
 Red. masses --      7.4381                 6.3749                 8.2620
 Frc consts  --      1.3415                 1.4186                 2.0386
 IR Inten    --      4.4388                21.0803                 6.5829

                     19                     20                     21
                      A                      A                      A
 Frequencies --    683.3313               705.2735               789.4232
 Red. masses --      5.6800                 5.2267                 2.3116
 Frc consts  --      1.5626                 1.5318                 0.8488
 IR Inten    --     32.1319                55.8721                13.4233

                     22                     23                     24
                      A                      A                      A
 Frequencies --    801.1418               814.2222               873.6336
 Red. masses --      2.9336                 2.3211                 1.5149
 Frc consts  --      1.1093                 0.9066                 0.6812
 IR Inten    --     29.0660                29.1199                21.7332

                     25                     26                     27
                      A                      A                      A
 Frequencies --    881.5051               914.6456               965.4143
 Red. masses --      1.3036                 3.6482                 3.2948
 Frc consts  --      0.5968                 1.7982                 1.8093
 IR Inten    --     10.8696                 9.4178                33.6482

                     28                     29                     30
                      A                      A                      A
 Frequencies --    976.8737              1004.9877              1133.7537
 Red. masses --      1.1753                 1.2338                 1.4850
 Frc consts  --      0.6608                 0.7342                 1.1247
 IR Inten    --     28.6088                33.6163                 6.0042

                     31                     32                     33
                      A                      A                      A
 Frequencies --   1152.7744              1241.9933              1246.2827
 Red. masses --      5.7469                 1.2845                 1.2665
 Frc consts  --      4.4996                 1.1674                 1.1590
 IR Inten    --     97.7797                15.1457                 3.7649

                     34                     35                     36
                      A                      A                      A
 Frequencies --   1337.8105              1359.7613              1407.7677
 Red. masses --      1.1720                 1.2067                 2.1621
 Frc consts  --      1.2359                 1.3146                 2.5246
 IR Inten    --      5.0664                22.0395                32.0586

                     37                     38                     39
                      A                      A                      A
 Frequencies --   1646.6295              1719.5121              2020.8150
 Red. masses --      6.3866                10.7001                10.3373
 Frc consts  --     10.2026                18.6402                24.8720
 IR Inten    --     73.0614               217.3733                52.3006

                     40                     41                     42
                      A                      A                      A
 Frequencies --   2556.9624              3058.8102              3098.6211
 Red. masses --      1.0398                 1.0877                 1.0857
 Frc consts  --      4.0054                 5.9959                 6.1416
 IR Inten    --     25.6829                16.3266                10.7571

                     43                     44                     45
                      A                      A                      A
 Frequencies --   3163.6538              3188.9692              3199.0408
 Red. masses --      1.0921                 1.0905                 1.0906
 Frc consts  --      6.4401                 6.5340                 6.5761
 IR Inten    --      5.7384                 8.5075                 1.2285

 - Thermochemistry -
 -------------------
 Temperature   298.150 Kelvin.  Pressure   1.00000 Atm.
 Atom     1 has atomic number 16 and mass  31.97207

 Molecular mass:   201.96931 amu.
 Principal axes and moments of inertia in atomic units:
                           1         2         3
     Eigenvalues --  1693.662153068.145763710.97818
           X            1.00000  -0.00199   0.00213
           Y            0.00197   0.99998   0.00543
           Z           -0.00214  -0.00543   0.99998
 This molecule is an asymmetric top.
 Rotational symmetry number  1.
 Warning -- assumption of classical behavior for rotation
           may cause significant error
 Rotational temperatures (Kelvin)      0.05114     0.02823     0.02334
 Rotational constants (GHZ):           1.06559     0.58822     0.48632
 Zero-point vibrational energy     285639.1 (Joules/Mol)
                                   68.26938 (Kcal/Mol)
 Warning -- explicit consideration of  17 degrees of freedom as
           vibrations may cause significant error
 Vibrational temperatures:     81.95   106.49   194.92   197.64   234.50
          (Kelvin)            298.34   351.69   387.90   432.70   485.65
                              503.27   560.59   579.27   609.84   725.35
                              796.05   884.22   931.10   983.16  1014.73
                             1135.80  1152.66  1171.48  1256.96  1268.29
                             1315.97  1389.02  1405.50  1445.95  1631.22
                             1658.59  1786.95  1793.12  1924.81  1956.39
                             2025.46  2369.13  2473.99  2907.50  3678.90
                             4400.95  4458.22  4551.79  4588.22  4602.71

 Zero-point correction=                           0.108794 (Hartree/Particle)
 Thermal correction to Energy=                    0.120309
 Thermal correction to Enthalpy=                  0.121254
 Thermal correction to Gibbs Free Energy=         0.070765
 Sum of electronic and zero-point Energies=          -1536.087945
 Sum of electronic and thermal Energies=             -1536.076430
 Sum of electronic and thermal Enthalpies=           -1536.075486
 Sum of electronic and thermal Free Energies=        -1536.125975

                     E (Thermal)             CV                S
                      KCal/Mol        Cal/Mol-Kelvin    Cal/Mol-Kelvin
 Total                   75.495             42.139            106.263
 Electronic               0.000              0.000              0.000
 Translational            0.889              2.981             41.813
 Rotational               0.889              2.981             31.334
 Vibrational             73.718             36.177             33.116
 Vibration     1          0.596              1.975              4.560
 Vibration     2          0.599              1.966              4.044
 Vibration     3          0.613              1.918              2.867
 Vibration     4          0.614              1.916              2.840
 Vibration     5          0.623              1.888              2.515
 Vibration     6          0.641              1.829              2.067
 Vibration     7          0.660              1.772              1.770
 Vibration     8          0.674              1.729              1.599
 Vibration     9          0.693              1.672              1.413
 Vibration    10          0.718              1.601              1.224
 Vibration    11          0.727              1.576              1.167
 Vibration    12          0.758              1.492              1.002
 Vibration    13          0.768              1.464              0.953
 Vibration    14          0.786              1.418              0.879
 Vibration    15          0.859              1.241              0.648
 Vibration    16          0.909              1.133              0.537
 Vibration    17          0.974              1.001              0.425

 Optimization completed.
    -- Stationary point found.
 Normal termination of Gaussian 16 at Fri May 19 10:21:01 2023.
