 Gaussian 16, Revision A.03,
 Gaussian 16:  ES64L-G16RevA.03 25-Dec-2016

 -----------------------------
 # opt freq b3lyp/6-31g(2df,p)
 -----------------------------

 -------------------
 Title Card Required
 -------------------
 Symbolic Z-matrix:
 Charge =  0 Multiplicity = 1

 SCF Done:  E(RB3LYP) =  -1026.05042318     A.U. after   18 cycles
 SCF Done:  E(RB3LYP) =  -1026.10652020     A.U. after   14 cycles
 SCF Done:  E(RB3LYP) =  -1026.15358510     A.U. after   14 cycles
 SCF Done:  E(RB3LYP) =  -1026.16279803     A.U. after   13 cycles
 SCF Done:  E(RB3LYP) =  -1026.16787820     A.U. after   13 cycles
 SCF Done:  E(RB3LYP) =  -1026.17698035     A.U. after   14 cycles
 SCF Done:  E(RB3LYP) =  -1026.18591782     A.U. after   13 cycles
 SCF Done:  E(RB3LYP) =  -1026.19453273     A.U. after   13 cycles
 SCF Done:  E(RB3LYP) =  -1026.20325543     A.U. after   13 cycles
 SCF Done:  E(RB3LYP) =  -1026.21241976     A.U. after   14 cycles
 SCF Done:  E(RB3LYP) =  -1026.23916225     A.U. after   12 cycles
 SCF Done:  E(RB3LYP) =  -1026.23948394     A.U. after   12 cycles
 SCF Done:  E(RB3LYP) =  -1026.23966025     A.U. after   12 cycles
 SCF Done:  E(RB3LYP) =  -1026.23970599     A.U. after   11 cycles
 SCF Done:  E(RB3LYP) =  -1026.23972234     A.U. after   10 cycles
 SCF Done:  E(RB3LYP) =  -1026.23972995     A.U. after   10 cycles
 SCF Done:  E(RB3LYP) =  -1026.23973200     A.U. after    8 cycles
 SCF Done:  E(RB3LYP) =  -1026.23973261     A.U. after    7 cycles
 SCF Done:  E(RB3LYP) =  -1026.23973281     A.U. after    7 cycles
 Optimization completed.
    -- Stationary point found.
 Normal termination of Gaussian 16 at Tue May 16 06:06:04 2023.

 ----------------------------------------------------------------------
 #N Geom=AllCheck Guess=TCheck SCRF=Check GenChk RB3LYP/6-31G(2df,p) Fr
 eq
 ----------------------------------------------------------------------

 Structure from the checkpoint file:  "SN1CdCC2dCCdNC2dCCdCCdCNdC1.chk"
 -------------------
 Title Card Required
 -------------------
 Charge =  0 Multiplicity = 1

                         Standard orientation:
 ---------------------------------------------------------------------
 Center     Atomic      Atomic             Coordinates (Angstroms)
 Number     Number       Type             X           Y           Z
 ---------------------------------------------------------------------
      1         16           0        3.208337   -1.839988    0.715636
      2          7           0        2.322045   -0.521722    0.052760
      3          6           0        0.985021   -0.799050   -0.399749
      4          6           0       -0.119750   -0.542687    0.320018
      5          6           0       -1.482966   -0.872403   -0.059507
      6          6           0       -1.925723   -2.034924   -0.646500
      7          6           0       -3.361336   -1.992203   -0.599346
      8          7           0       -3.835334   -0.904658   -0.030742
      9          6           0       -2.723862   -0.132316    0.283650
     10          6           0       -2.882015    1.133957    0.806060
     11          6           0       -1.859205    2.121121    0.828460
     12          6           0       -0.918499    2.163803   -0.169695
     13          6           0        0.425840    2.609826   -0.084666
     14          6           0        1.288026    1.973933   -0.926613
     15          7           0        2.616879    1.759169   -0.660599
     16          6           0        3.043444    0.636649   -0.234801
     17          1           0        3.567924   -2.465587   -0.433986
     18          1           0        0.927556   -1.285637   -1.371681
     19          1           0        0.005363   -0.009763    1.258946
     20          1           0       -1.318689   -2.869433   -0.968627
     21          1           0       -4.028582   -2.768790   -0.959375
     22          1           0       -3.858366    1.353229    1.234124
     23          1           0       -1.805204    2.812994    1.666860
     24          1           0       -1.164024    1.602080   -1.068072
     25          1           0        0.798171    3.070620    0.825694
     26          1           0        0.900533    1.552285   -1.853920
     27          1           0        4.102939    0.524056   -0.013936
 ---------------------------------------------------------------------

 SCF Done:  E(RB3LYP) =  -1026.23973281     A.U. after    1 cycles

 The electronic state is 1-A.
 Alpha  occ. eigenvalues --  -88.92388 -14.40254 -14.34104 -14.29774 -10.28427
 Alpha  occ. eigenvalues --  -10.24275 -10.22976 -10.21202 -10.20922 -10.20850
 Alpha  occ. eigenvalues --  -10.20716 -10.20223 -10.19593 -10.19561 -10.19478
 Alpha  occ. eigenvalues --  -10.17580  -7.98546  -5.95152  -5.94658  -5.93983
 Alpha  occ. eigenvalues --   -0.99502  -0.93594  -0.92826  -0.83698  -0.80641
 Alpha  occ. eigenvalues --   -0.78866  -0.74876  -0.73776  -0.70553  -0.68469
 Alpha  occ. eigenvalues --   -0.62852  -0.61849  -0.57576  -0.56569  -0.54306
 Alpha  occ. eigenvalues --   -0.52626  -0.52164  -0.51665  -0.49281  -0.47803
 Alpha  occ. eigenvalues --   -0.46274  -0.44170  -0.43393  -0.41760  -0.40697
 Alpha  occ. eigenvalues --   -0.40160  -0.38446  -0.37289  -0.37194  -0.36760
 Alpha  occ. eigenvalues --   -0.35876  -0.35492  -0.32354  -0.29507  -0.27398
 Alpha  occ. eigenvalues --   -0.26205  -0.25928  -0.24841  -0.21967  -0.20209
 Alpha virt. eigenvalues --   -0.08256  -0.04563  -0.01544  -0.00719   0.01660
 Alpha virt. eigenvalues --    0.03867   0.05011   0.08029   0.09939   0.10168
 Alpha virt. eigenvalues --    0.12036   0.13117   0.13370   0.14680   0.15006

 Mulliken charges:
               1
     1  S   -0.157557
     2  N   -0.099496
     3  C   -0.091138
     4  C   -0.166683
     5  C    0.208039
     6  C   -0.267111
     7  C   -0.033416
     8  N   -0.311126
     9  C    0.235452
    10  C   -0.141516
    11  C   -0.164550
    12  C   -0.031062
    13  C   -0.161009
    14  C    0.014427
    15  N   -0.245072
    16  C    0.112512
    17  H    0.154683
    18  H    0.107573
    19  H    0.117750
    20  H    0.100498
    21  H    0.102910
    22  H    0.121806
    23  H    0.103771
    24  H    0.116548
    25  H    0.101735
    26  H    0.126197
    27  H    0.145837
 Sum of Mulliken charges =  -0.00000

 Dipole moment (field-independent basis, Debye):
    X=              3.3156    Y=             -0.5668    Z=             -0.5445  Tot=              3.4074
 Quadrupole moment (field-independent basis, Debye-Ang):
   XX=           -109.5844   YY=            -96.5515   ZZ=            -95.9248
   XY=             -8.4464   XZ=             -2.2925   YZ=              7.5047

  Exact polarizability: 265.163  17.253 203.278 -11.976  19.749 107.629
 Approx polarizability: 469.175  59.862 403.824 -50.820  44.390 206.177

                      1                      2                      3
                      A                      A                      A
 Frequencies --     41.1975                90.8921               117.4142
 Red. masses --      6.4390                 7.2951                 4.8489
 Frc consts  --      0.0064                 0.0355                 0.0394
 IR Inten    --      0.0559                 0.7858                 3.9595

                      4                      5                      6
                      A                      A                      A
 Frequencies --    132.4806               150.0321               183.5158
 Red. masses --      5.4000                 5.5743                 4.5501
 Frc consts  --      0.0558                 0.0739                 0.0903
 IR Inten    --      1.7273                 0.6646                 0.7597

                      7                      8                      9
                      A                      A                      A
 Frequencies --    206.4414               233.0886               270.9277
 Red. masses --      3.8601                 3.4124                 3.4457
 Frc consts  --      0.0969                 0.1092                 0.1490
 IR Inten    --      2.1530                 0.5330                 4.8867

                     10                     11                     12
                      A                      A                      A
 Frequencies --    293.4717               310.2712               311.2590
 Red. masses --      2.2681                 2.1064                 1.7861
 Frc consts  --      0.1151                 0.1195                 0.1020
 IR Inten    --      9.5833                 3.9955                 0.3156

                     13                     14                     15
                      A                      A                      A
 Frequencies --    359.5131               374.8864               393.4439
 Red. masses --      2.2681                 4.0569                 3.3861
 Frc consts  --      0.1727                 0.3359                 0.3088
 IR Inten    --      1.9531                34.2389                41.2099

                     16                     17                     18
                      A                      A                      A
 Frequencies --    415.2027               422.9416               458.5305
 Red. masses --      4.9993                 4.3440                 5.2833
 Frc consts  --      0.5078                 0.4578                 0.6545
 IR Inten    --      5.5905                 5.9253                 9.8222

                     19                     20                     21
                      A                      A                      A
 Frequencies --    513.7984               569.8650               582.1959
 Red. masses --      3.7778                 7.2535                 4.3289
 Frc consts  --      0.5876                 1.3879                 0.8645
 IR Inten    --     18.1703                33.6095                83.0490

                     22                     23                     24
                      A                      A                      A
 Frequencies --    614.7027               655.0211               720.2259
 Red. masses --      3.2307                 4.0098                 5.8706
 Frc consts  --      0.7192                 1.0136                 1.7942
 IR Inten    --      4.0678                 5.3165                 2.9458

                     25                     26                     27
                      A                      A                      A
 Frequencies --    740.5160               792.7478               820.3476
 Red. masses --      4.1134                 2.8331                 1.4256
 Frc consts  --      1.3290                 1.0490                 0.5652
 IR Inten    --     11.8967                35.3699                33.0766

                     28                     29                     30
                      A                      A                      A
 Frequencies --    845.9253               851.7577               872.2703
 Red. masses --      2.3445                 1.8903                 4.4628
 Frc consts  --      0.9885                 0.8080                 2.0006
 IR Inten    --     20.8567                11.6223                 9.2946

                     31                     32                     33
                      A                      A                      A
 Frequencies --    891.6746               909.0494               927.1668
 Red. masses --      2.3083                 1.6823                 1.9339
 Frc consts  --      1.0813                 0.8191                 0.9795
 IR Inten    --     27.3462                87.3489                10.6529

                     34                     35                     36
                      A                      A                      A
 Frequencies --    929.7122               944.7580               961.6836
 Red. masses --      2.1015                 1.2687                 1.8688
 Frc consts  --      1.0702                 0.6672                 1.0183
 IR Inten    --     42.4727                 3.2045                58.5653

                     37                     38                     39
                      A                      A                      A
 Frequencies --    982.4733               994.8647              1018.1998
 Red. masses --      1.4215                 1.1934                 1.1910
 Frc consts  --      0.8084                 0.6959                 0.7275
 IR Inten    --      8.4206                22.2373               150.3960

                     40                     41                     42
                      A                      A                      A
 Frequencies --   1036.9329              1038.9016              1071.1653
 Red. masses --      1.9290                 1.6019                 1.9800
 Frc consts  --      1.2220                 1.0186                 1.3385
 IR Inten    --     15.3854                 3.9137                 1.2454

                     43                     44                     45
                      A                      A                      A
 Frequencies --   1103.9484              1149.3381              1207.4643
 Red. masses --      3.6907                 2.2101                 2.9428
 Frc consts  --      2.6501                 1.7201                 2.5279
 IR Inten    --     50.4922                 7.1211                27.3461

                     46                     47                     48
                      A                      A                      A
 Frequencies --   1217.4156              1237.0152              1260.4950
 Red. masses --      1.7261                 1.5007                 3.8875
 Frc consts  --      1.5073                 1.3530                 3.6392
 IR Inten    --     30.5131                 6.9471               163.4241

                     49                     50                     51
                      A                      A                      A
 Frequencies --   1264.2542              1298.9808              1313.1405
 Red. masses --      1.8170                 1.3825                 1.7995
 Frc consts  --      1.7111                 1.3744                 1.8282
 IR Inten    --     33.4342                12.6949                 3.9370

                     52                     53                     54
                      A                      A                      A
 Frequencies --   1327.6932              1346.4022              1354.5777
 Red. masses --      1.7092                 1.3953                 2.5050
 Frc consts  --      1.7751                 1.4902                 2.7081
 IR Inten    --     11.2443                13.1755                11.2889

                     55                     56                     57
                      A                      A                      A
 Frequencies --   1370.4670              1386.8563              1428.8418
 Red. masses --      1.7772                 1.7179                 3.3782
 Frc consts  --      1.9667                 1.9468                 4.0635
 IR Inten    --     73.9264                11.9175               143.3612

                     58                     59                     60
                      A                      A                      A
 Frequencies --   1432.6752              1566.3307              1579.7326
 Red. masses --      1.2880                 6.0599                 4.8384
 Frc consts  --      1.5576                 8.7596                 7.1141
 IR Inten    --      6.7049                59.5995               258.2484

                     61                     62                     63
                      A                      A                      A
 Frequencies --   1600.3963              1630.6042              1648.8222
 Red. masses --      4.6241                 5.1549                 6.0313
 Frc consts  --      6.9780                 8.0754                 9.6608
 IR Inten    --     11.6614               152.3882                61.5756

                     64                     65                     66
                      A                      A                      A
 Frequencies --   1712.6059              2571.3623              3121.7506
 Red. masses --      9.7642                 1.0398                 1.0867
 Frc consts  --     16.8733                 4.0508                 6.2394
 IR Inten    --    292.7750                25.2533                10.4568

                     67                     68                     69
                      A                      A                      A
 Frequencies --   3135.0019              3140.9807              3153.2977
 Red. masses --      1.0890                 1.0855                 1.0864
 Frc consts  --      6.3063                 6.3095                 6.3644
 IR Inten    --     13.6868                 7.3044                 9.1847

                     70                     71                     72
                      A                      A                      A
 Frequencies --   3155.8850              3159.9279              3163.2579
 Red. masses --      1.0897                 1.0902                 1.0870
 Frc consts  --      6.3943                 6.4138                 6.4081
 IR Inten    --     12.8612                11.1557                 3.0016

                     73                     74                     75
                      A                      A                      A
 Frequencies --   3174.4133              3184.7037              3230.7116
 Red. masses --      1.0893                 1.0917                 1.0968
 Frc consts  --      6.4674                 6.5235                 6.7450
 IR Inten    --     12.1244                27.8079                 7.1472

 - Thermochemistry -
 -------------------
 Temperature   298.150 Kelvin.  Pressure   1.00000 Atm.
 Atom     1 has atomic number 16 and mass  31.97207

 Molecular mass:   229.06737 amu.
 Principal axes and moments of inertia in atomic units:
                           1         2         3
     Eigenvalues --  2395.091115165.598817001.40965
           X            0.99999  -0.00165  -0.00401
           Y            0.00175   0.99971   0.02416
           Z            0.00397  -0.02417   0.99970
 This molecule is an asymmetric top.
 Rotational symmetry number  1.
 Warning -- assumption of classical behavior for rotation
           may cause significant error
 Rotational temperatures (Kelvin)      0.03616     0.01677     0.01237
 Rotational constants (GHZ):           0.75352     0.34938     0.25777
 Zero-point vibrational energy     536410.4 (Joules/Mol)
                                  128.20516 (Kcal/Mol)
 Warning -- explicit consideration of  22 degrees of freedom as
           vibrations may cause significant error
 Vibrational temperatures:     59.27   130.77   168.93   190.61   215.86
          (Kelvin)            264.04   297.02   335.36   389.80   422.24
                              446.41   447.83   517.26   539.38   566.08
                              597.38   608.52   659.72   739.24   819.91
                              837.65   884.42   942.43  1036.24  1065.44
                             1140.59  1180.30  1217.10  1225.49  1255.00
                             1282.92  1307.92  1333.99  1337.65  1359.30
                             1383.65  1413.56  1431.39  1464.96  1491.92
                             1494.75  1541.17  1588.34  1653.64  1737.27
                             1751.59  1779.79  1813.57  1818.98  1868.94
                             1889.32  1910.25  1937.17  1948.94  1971.80
                             1995.38  2055.78  2061.30  2253.60  2272.88
                             2302.61  2346.08  2372.29  2464.06  3699.62
                             4491.50  4510.57  4519.17  4536.89  4540.61
                             4546.43  4551.22  4567.27  4582.08  4648.27

 Zero-point correction=                           0.204308 (Hartree/Particle)
 Thermal correction to Energy=                    0.218057
 Thermal correction to Enthalpy=                  0.219001
 Thermal correction to Gibbs Free Energy=         0.163916
 Sum of electronic and zero-point Energies=          -1026.035425
 Sum of electronic and thermal Energies=             -1026.021676
 Sum of electronic and thermal Enthalpies=           -1026.020732
 Sum of electronic and thermal Free Energies=        -1026.075816

                     E (Thermal)             CV                S
                      KCal/Mol        Cal/Mol-Kelvin    Cal/Mol-Kelvin
 Total                  136.833             54.160            115.936
 Electronic               0.000              0.000              0.000
 Translational            0.889              2.981             42.189
 Rotational               0.889              2.981             32.827
 Vibrational            135.055             48.199             40.920
 Vibration     1          0.594              1.981              5.201
 Vibration     2          0.602              1.956              3.641
 Vibration     3          0.608              1.935              3.142
 Vibration     4          0.613              1.921              2.910
 Vibration     5          0.618              1.903              2.672
 Vibration     6          0.631              1.862              2.292
 Vibration     7          0.641              1.831              2.075
 Vibration     8          0.654              1.790              1.855
 Vibration     9          0.675              1.727              1.590
 Vibration    10          0.688              1.686              1.454
 Vibration    11          0.699              1.654              1.361
 Vibration    12          0.700              1.652              1.356
 Vibration    13          0.734              1.556              1.124
 Vibration    14          0.746              1.524              1.060
 Vibration    15          0.761              1.484              0.987
 Vibration    16          0.779              1.437              0.908
 Vibration    17          0.785              1.420              0.882
 Vibration    18          0.817              1.342              0.770
 Vibration    19          0.869              1.219              0.625
 Vibration    20          0.926              1.096              0.504
 Vibration    21          0.939              1.070              0.481
 Vibration    22          0.974              1.001              0.425

 Optimization completed.
    -- Stationary point found.
 Normal termination of Gaussian 16 at Tue May 16 08:23:06 2023.
