 Gaussian 16, Revision A.03,
 Gaussian 16:  ES64L-G16RevA.03 25-Dec-2016

 -----------------------------
 # opt freq b3lyp/6-31g(2df,p)
 -----------------------------

 -------------------
 Title Card Required
 -------------------
 Symbolic Z-matrix:
 Charge =  0 Multiplicity = 1

 SCF Done:  E(RB3LYP) =  -2752.13839644     A.U. after   29 cycles
 SCF Done:  E(RB3LYP) =  -2752.42696361     A.U. after   25 cycles
 SCF Done:  E(RB3LYP) =  -2752.69494782     A.U. after   32 cycles
 SCF Done:  E(RB3LYP) =  -2752.76821534     A.U. after   26 cycles
 SCF Done:  E(RB3LYP) =  -2752.83231526     A.U. after   21 cycles
 SCF Done:  E(RB3LYP) =  -2752.88421782     A.U. after   21 cycles
 SCF Done:  E(RB3LYP) =  -2752.92898949     A.U. after   27 cycles
 SCF Done:  E(RB3LYP) =  -2752.97426521     A.U. after   28 cycles
 SCF Done:  E(RB3LYP) =  -2752.97652242     A.U. after   25 cycles
 SCF Done:  E(RB3LYP) =  -2753.06638946     A.U. after   28 cycles
 SCF Done:  E(RB3LYP) =  -2754.02175399     A.U. after    9 cycles
 SCF Done:  E(RB3LYP) =  -2754.02175532     A.U. after    9 cycles
 SCF Done:  E(RB3LYP) =  -2754.02175567     A.U. after    9 cycles
 SCF Done:  E(RB3LYP) =  -2754.02175576     A.U. after    7 cycles
 SCF Done:  E(RB3LYP) =  -2754.02175588     A.U. after    8 cycles
 SCF Done:  E(RB3LYP) =  -2754.02175599     A.U. after    8 cycles
 SCF Done:  E(RB3LYP) =  -2754.02175609     A.U. after    8 cycles
 SCF Done:  E(RB3LYP) =  -2754.02175619     A.U. after    8 cycles
 SCF Done:  E(RB3LYP) =  -2754.02175625     A.U. after    9 cycles
 Optimization completed.
    -- Stationary point found.

 The electronic state is 1-A.
 Alpha  occ. eigenvalues --  -88.96477 -88.93659 -88.91967 -88.91564 -88.90980
 Alpha  occ. eigenvalues --  -88.81767 -14.38571 -10.27240 -10.25385 -10.25249
 Alpha  occ. eigenvalues --  -10.24619 -10.24353 -10.21830 -10.21738 -10.20882
 Alpha  occ. eigenvalues --   -8.02436  -7.99752  -7.98125  -7.97701  -7.97545
 Alpha  occ. eigenvalues --   -7.88300  -5.98766  -5.98402  -5.98381  -5.96127
 Alpha  occ. eigenvalues --   -5.95708  -5.95635  -5.94667  -5.94317  -5.94223
 Alpha  occ. eigenvalues --   -5.94022  -5.93803  -5.93637  -5.93632  -5.93146
 Alpha  occ. eigenvalues --   -5.93029  -5.84665  -5.84452  -5.83882  -0.96283
 Alpha  occ. eigenvalues --   -0.89113  -0.85667  -0.83917  -0.80814  -0.78026
 Alpha  occ. eigenvalues --   -0.76024  -0.73284  -0.70471  -0.67817  -0.65018
 Alpha  occ. eigenvalues --   -0.62960  -0.59292  -0.55773  -0.54405  -0.52598
 Alpha  occ. eigenvalues --   -0.51382  -0.49230  -0.48076  -0.47353  -0.45140
 Alpha  occ. eigenvalues --   -0.44727  -0.42308  -0.41503  -0.40251  -0.38938
 Alpha  occ. eigenvalues --   -0.37515  -0.37105  -0.35951  -0.35384  -0.34474
 Alpha  occ. eigenvalues --   -0.33469  -0.33236  -0.30174  -0.27405  -0.27063
 Alpha  occ. eigenvalues --   -0.26050  -0.24432  -0.23789  -0.19408  -0.17864
 Alpha virt. eigenvalues --   -0.13074  -0.04428  -0.03327  -0.02320  -0.00489
 Alpha virt. eigenvalues --    0.00789   0.01303   0.01987   0.02541   0.03549
 Alpha virt. eigenvalues --    0.04792   0.05959   0.06236   0.08351   0.09528

 Mulliken charges:
               1
     1  S   -0.162862
     2  N   -0.349764
     3  C    0.059555
     4  C   -0.210636
     5  S    0.142906
     6  C   -0.133209
     7  C   -0.105997
     8  S    0.055151
     9  C   -0.015776
    10  C   -0.150720
    11  S   -0.420260
    12  C    0.377359
    13  C   -0.366481
    14  S   -0.009706
    15  S   -0.200054
    16  H    0.149867
    17  H    0.261912
    18  H    0.141289
    19  H    0.140400
    20  H    0.208807
    21  H    0.119595
    22  H    0.128992
    23  H    0.154923
    24  H    0.184708
 Sum of Mulliken charges =  -0.00000

 Dipole moment (field-independent basis, Debye):
    X=             -2.3526    Y=              5.1475    Z=             -0.3555  Tot=              5.6708
 Quadrupole moment (field-independent basis, Debye-Ang):
   XX=           -141.5874   YY=           -136.0361   ZZ=           -128.7315
   XY=             16.8604   XZ=              3.4318   YZ=             -3.1562

 Normal termination of Gaussian 16 at Fri May 19 02:25:08 2023.

 ----------------------------------------------------------------------
 #N Geom=AllCheck Guess=TCheck SCRF=Check GenChk RB3LYP/6-31G(2df,p) Fr
 eq
 ----------------------------------------------------------------------

 Structure from the checkpoint file:  "SNC1dCSCdCSCdCSC1dCSS.chk"
 -------------------
 Title Card Required
 -------------------
 Charge =  0 Multiplicity = 1

                         Standard orientation:
 ---------------------------------------------------------------------
 Center     Atomic      Atomic             Coordinates (Angstroms)
 Number     Number       Type             X           Y           Z
 ---------------------------------------------------------------------
      1         16           0       -4.927204    2.047763   -0.285045
      2          7           0       -3.254435    2.202114   -0.496516
      3          6           0       -2.332086    1.285814    0.070318
      4          6           0       -0.961353    1.685012   -0.080353
      5         16           0        0.282733    0.573693    0.044007
      6          6           0        1.740786    1.448542    0.154428
      7          6           0        2.935754    0.781896    0.067818
      8         16           0        4.407440    1.627094    0.187176
      9          6           0        5.834893   -0.816432   -0.090337
     10          6           0        5.739477    0.549107    0.078806
     11         16           0        4.646946   -2.002266   -0.267321
     12          6           0       -2.712845    0.177829    0.705961
     13          6           0       -3.094582   -0.847547    1.397906
     14         16           0       -3.203602   -2.565611    0.873772
     15         16           0       -2.746312   -2.550962   -1.139914
     16          1           0       -5.169927    0.881641   -0.941273
     17          1           0       -2.980496    2.555817   -1.403211
     18          1           0       -0.726950    2.724739   -0.281544
     19          1           0        1.675456    2.523812    0.290570
     20          1           0        3.018021   -0.296510   -0.071410
     21          1           0        6.871580   -1.159898   -0.112168
     22          1           0        6.647076    1.138632    0.166905
     23          1           0       -3.411196   -0.782357    2.440430
     24          1           0       -1.402793   -2.661367   -1.042783
 ---------------------------------------------------------------------

 SCF Done:  E(RB3LYP) =  -2754.02175625     A.U. after    1 cycles
