 Gaussian 16, Revision A.03,
 Gaussian 16:  ES64L-G16RevA.03 25-Dec-2016

 -----------------------------
 # opt freq b3lyp/6-31g(2df,p)
 -----------------------------

 -------------------
 Title Card Required
 -------------------
 Symbolic Z-matrix:
 Charge =  0 Multiplicity = 2

 SCF Done:  E(UB3LYP) =  -1214.69899063     A.U. after   35 cycles
 SCF Done:  E(UB3LYP) =  -1214.74636139     A.U. after   28 cycles
 SCF Done:  E(UB3LYP) =  -1214.80495112     A.U. after   23 cycles
 SCF Done:  E(UB3LYP) =  -1214.84242670     A.U. after   22 cycles
 SCF Done:  E(UB3LYP) =  -1214.88356376     A.U. after   26 cycles
 SCF Done:  E(UB3LYP) =  -1214.90564430     A.U. after   21 cycles
 SCF Done:  E(UB3LYP) =  -1214.91881153     A.U. after   19 cycles
 SCF Done:  E(UB3LYP) =  -1214.92667370     A.U. after   17 cycles
 SCF Done:  E(UB3LYP) =  -1214.93290385     A.U. after   18 cycles
 SCF Done:  E(UB3LYP) =  -1214.93447109     A.U. after   16 cycles
 SCF Done:  E(UB3LYP) =  -1214.93549395     A.U. after   15 cycles
 SCF Done:  E(UB3LYP) =  -1214.93555785     A.U. after   14 cycles
 SCF Done:  E(UB3LYP) =  -1214.93558574     A.U. after   13 cycles
 SCF Done:  E(UB3LYP) =  -1214.93558817     A.U. after   13 cycles
 SCF Done:  E(UB3LYP) =  -1214.93558972     A.U. after   10 cycles
 SCF Done:  E(UB3LYP) =  -1214.93559048     A.U. after   12 cycles
 SCF Done:  E(UB3LYP) =  -1214.93559060     A.U. after   11 cycles
 SCF Done:  E(UB3LYP) =  -1214.93559064     A.U. after   10 cycles
 SCF Done:  E(UB3LYP) =  -1214.93559065     A.U. after    9 cycles
 Optimization completed.
    -- Stationary point found.
 Normal termination of Gaussian 16 at Fri May 19 08:29:05 2023.

 ----------------------------------------------------------------------
 #N Geom=AllCheck Guess=TCheck SCRF=Check GenChk UB3LYP/6-31G(2df,p) Fr
 eq
 ----------------------------------------------------------------------

 Structure from the checkpoint file:  "SSC1dCCdc2[nH]ccc2dN[CH]1.chk"
 -------------------
 Title Card Required
 -------------------
 Charge =  0 Multiplicity = 2

                         Standard orientation:
 ---------------------------------------------------------------------
 Center     Atomic      Atomic             Coordinates (Angstroms)
 Number     Number       Type             X           Y           Z
 ---------------------------------------------------------------------
      1         16           0        3.657797    0.133514    1.024041
      2         16           0        2.695490   -0.086002   -0.845865
      3          6           0        0.955021   -0.012218   -0.502823
      4          6           0        0.369099    1.276118   -0.418800
      5          6           0       -0.941770    1.609131   -0.193246
      6          6           0       -1.993343    0.677711    0.005598
      7          7           0       -3.291505    1.054729    0.227760
      8          6           0       -4.095791   -0.046795    0.384055
      9          6           0       -3.309717   -1.168626    0.261709
     10          6           0       -1.976813   -0.743023    0.022451
     11          7           0       -0.938275   -1.625625   -0.144535
     12          6           0        0.300840   -1.278831   -0.362470
     13          1           0        3.656336   -1.162306    1.404911
     14          1           0        1.059135    2.103438   -0.554648
     15          1           0       -1.199999    2.664172   -0.167133
     16          1           0       -3.603907    2.010429    0.270781
     17          1           0       -5.152367    0.061984    0.567895
     18          1           0       -3.629081   -2.195931    0.331960
     19          1           0        0.980593   -2.126501   -0.465981
 ---------------------------------------------------------------------

 SCF Done:  E(UB3LYP) =  -1214.93559065     A.U. after    1 cycles

 The electronic state is 2-A.
 Alpha  occ. eigenvalues --  -88.88824 -88.87946 -14.40129 -14.32494 -10.23887
 Alpha  occ. eigenvalues --  -10.23298 -10.22942 -10.22222 -10.21762 -10.21207
 Alpha  occ. eigenvalues --  -10.21110 -10.18474  -7.94917  -7.94559  -5.91463
 Alpha  occ. eigenvalues --   -5.91043  -5.91040  -5.90668  -5.90404  -5.90045
 Alpha  occ. eigenvalues --   -1.00628  -0.92684  -0.83623  -0.80034  -0.78842
 Alpha  occ. eigenvalues --   -0.74984  -0.70383  -0.66497  -0.63034  -0.60657
 Alpha  occ. eigenvalues --   -0.58490  -0.54940  -0.51313  -0.48439  -0.45853
 Alpha  occ. eigenvalues --   -0.45055  -0.44950  -0.42526  -0.42032  -0.40879
 Alpha  occ. eigenvalues --   -0.38592  -0.37362  -0.36000  -0.34863  -0.32515
 Alpha  occ. eigenvalues --   -0.27207  -0.26033  -0.24937  -0.24305  -0.23835
 Alpha  occ. eigenvalues --   -0.16238
 Alpha virt. eigenvalues --   -0.06072  -0.02709   0.03272   0.04200   0.05263
 Alpha virt. eigenvalues --    0.06148   0.09612   0.10910   0.12253   0.12444
 Alpha virt. eigenvalues --    0.15705   0.15999   0.17614   0.20314   0.21381

  Beta  occ. eigenvalues --  -88.88831 -88.87893 -14.40170 -14.32029 -10.23750
  Beta  occ. eigenvalues --  -10.23089 -10.23071 -10.22055 -10.21304 -10.21242
  Beta  occ. eigenvalues --  -10.20768 -10.18536  -7.94918  -7.94505  -5.91480
  Beta  occ. eigenvalues --   -5.91062  -5.90919  -5.90602  -5.90403  -5.90004
  Beta  occ. eigenvalues --   -1.00423  -0.91901  -0.82987  -0.79478  -0.78604
  Beta  occ. eigenvalues --   -0.74613  -0.69674  -0.66372  -0.62770  -0.60552
  Beta  occ. eigenvalues --   -0.58190  -0.54645  -0.50965  -0.48295  -0.45621
  Beta  occ. eigenvalues --   -0.44941  -0.43993  -0.42267  -0.41929  -0.40706
  Beta  occ. eigenvalues --   -0.37401  -0.37035  -0.35850  -0.33591  -0.31155
  Beta  occ. eigenvalues --   -0.25839  -0.25435  -0.24223  -0.23907  -0.23662
  Beta virt. eigenvalues --   -0.09487  -0.05819  -0.01871   0.04292   0.04366
  Beta virt. eigenvalues --    0.05489   0.06277   0.11050   0.11486   0.12629
  Beta virt. eigenvalues --    0.14202   0.15764   0.16043   0.17694   0.20423

 Mulliken charges and spin densities:
               1          2
     1  S   -0.216363   0.076136
     2  S   -0.156955  -0.000813
     3  C    0.112938   0.338220
     4  C   -0.106590  -0.064275
     5  C   -0.211156   0.249544
     6  C    0.294456   0.085678
     7  N   -0.323040  -0.017198
     8  C   -0.069048   0.148066
     9  C   -0.205972  -0.041336
    10  C    0.250061   0.104874
    11  N   -0.374662   0.231576
    12  C   -0.024228  -0.097281
    13  H    0.166911  -0.001198
    14  H    0.122667   0.002298
    15  H    0.093831  -0.011275
    16  H    0.271150   0.000107
    17  H    0.138461  -0.007453
    18  H    0.119030   0.001182
    19  H    0.118510   0.003147
 Sum of Mulliken charges =   0.00000   1.00000

 Dipole moment (field-independent basis, Debye):
    X=             -4.9364    Y=              2.6421    Z=              0.7274  Tot=              5.6461
 Quadrupole moment (field-independent basis, Debye-Ang):
   XX=            -73.7852   YY=            -76.8166   ZZ=            -85.5623
   XY=            -10.9925   XZ=             -0.2852   YZ=             -1.5507

  Exact polarizability: 261.920  -0.348 123.363  -1.569  -1.437  80.820
 Approx polarizability: 403.379   1.645 232.051  -9.623  -2.155 147.036

                      1                      2                      3
                      A                      A                      A
 Frequencies --     25.9522                44.7057               122.7742
 Red. masses --      7.2790                 7.0297                 8.7894
 Frc consts  --      0.0029                 0.0083                 0.0781
 IR Inten    --      2.1690                 0.6725                 1.2241

                      4                      5                      6
                      A                      A                      A
 Frequencies --    181.5056               229.6325               250.2376
 Red. masses --      3.8647                 2.9662                 5.5314
 Frc consts  --      0.0750                 0.0922                 0.2041
 IR Inten    --      0.1647                 5.9806                 6.2142

                      7                      8                      9
                      A                      A                      A
 Frequencies --    300.6752               316.5486               356.5642
 Red. masses --      7.0117                 1.4554                 5.4040
 Frc consts  --      0.3735                 0.0859                 0.4048
 IR Inten    --      3.0296                12.3148                16.2557

                     10                     11                     12
                      A                      A                      A
 Frequencies --    378.1713               434.1278               443.4623
 Red. masses --      4.4220                 4.7472                16.7164
 Frc consts  --      0.3726                 0.5271                 1.9369
 IR Inten    --      8.6265                10.3505                26.7760

                     13                     14                     15
                      A                      A                      A
 Frequencies --    502.1371               556.1846               562.2351
 Red. masses --      1.3937                 6.4671                10.9272
 Frc consts  --      0.2070                 1.1787                 2.0351
 IR Inten    --     52.3491                 0.9053                19.9349

                     16                     17                     18
                      A                      A                      A
 Frequencies --    592.2165               639.0939               694.5762
 Red. masses --      2.8737                 2.8774                 6.2364
 Frc consts  --      0.5938                 0.6924                 1.7726
 IR Inten    --     18.8534                 1.9654                 0.9702

                     19                     20                     21
                      A                      A                      A
 Frequencies --    718.8701               752.6754               760.6347
 Red. masses --      1.6693                 1.6762                 5.6715
 Frc consts  --      0.5083                 0.5595                 1.9333
 IR Inten    --     13.6737                35.5907                 0.9026

                     22                     23                     24
                      A                      A                      A
 Frequencies --    794.5881               833.9041               865.8436
 Red. masses --      1.9397                 1.0582                 1.3593
 Frc consts  --      0.7216                 0.4335                 0.6004
 IR Inten    --      6.5833                 8.6257                11.6675

                     25                     26                     27
                      A                      A                      A
 Frequencies --    895.3475               922.8681               963.2804
 Red. masses --      4.5720                 4.4858                 1.4000
 Frc consts  --      2.1594                 2.2510                 0.7654
 IR Inten    --     25.1023                19.6392                 1.3065

                     28                     29                     30
                      A                      A                      A
 Frequencies --    996.0721              1003.1088              1072.5219
 Red. masses --      1.4263                 4.6900                 1.4736
 Frc consts  --      0.8338                 2.7805                 0.9987
 IR Inten    --      1.9131                11.5063                 4.4882

                     31                     32                     33
                      A                      A                      A
 Frequencies --   1108.8577              1156.1168              1225.8142
 Red. masses --      1.7568                 2.2650                 5.4428
 Frc consts  --      1.2727                 1.7837                 4.8186
 IR Inten    --     22.5970                13.7370                17.5019

                     34                     35                     36
                      A                      A                      A
 Frequencies --   1245.0543              1248.0132              1303.2002
 Red. masses --      1.5777                 1.8613                 3.4171
 Frc consts  --      1.4410                 1.7080                 3.4193
 IR Inten    --     10.9008                18.3816                10.0949

                     37                     38                     39
                      A                      A                      A
 Frequencies --   1383.7683              1417.4226              1436.1669
 Red. masses --      2.4838                 1.8344                 3.2178
 Frc consts  --      2.8022                 2.1714                 3.9104
 IR Inten    --     84.0514                21.8034                 0.0889

                     40                     41                     42
                      A                      A                      A
 Frequencies --   1461.8199              1501.3784              1531.7136
 Red. masses --      1.8871                 2.6749                 4.0350
 Frc consts  --      2.3760                 3.5526                 5.5776
 IR Inten    --      3.4589                36.9249                 1.8905

                     43                     44                     45
                      A                      A                      A
 Frequencies --   1579.9439              1619.7101              2631.3200
 Red. masses --      3.8163                 6.9209                 1.0394
 Frc consts  --      5.6128                10.6976                 4.2403
 IR Inten    --      8.7581                 1.7649                 4.0651

                     46                     47                     48
                      A                      A                      A
 Frequencies --   3109.4796              3157.6668              3180.1951
 Red. masses --      1.0866                 1.0845                 1.0913
 Frc consts  --      6.1902                 6.3713                 6.5026
 IR Inten    --     12.6615                 4.9484                 6.2923

                     49                     50                     51
                      A                      A                      A
 Frequencies --   3260.9354              3278.9796              3662.9623
 Red. masses --      1.0897                 1.1044                 1.0801
 Frc consts  --      6.8269                 6.9962                 8.5384
 IR Inten    --      1.4764                 0.1584                78.2268

 - Thermochemistry -
 -------------------
 Temperature   298.150 Kelvin.  Pressure   1.00000 Atm.
 Atom     1 has atomic number 16 and mass  31.97207

 Molecular mass:   195.00507 amu.
 Principal axes and moments of inertia in atomic units:
                           1         2         3
     Eigenvalues --   888.585125055.941515443.30322
           X            0.99998  -0.00591  -0.00052
           Y            0.00590   0.99974  -0.02182
           Z            0.00065   0.02181   0.99976
 This molecule is an asymmetric top.
 Rotational symmetry number  1.
 Warning -- assumption of classical behavior for rotation
           may cause significant error
 Rotational temperatures (Kelvin)      0.09747     0.01713     0.01591
 Rotational constants (GHZ):           2.03103     0.35695     0.33155
 Zero-point vibrational energy     351170.0 (Joules/Mol)
                                   83.93164 (Kcal/Mol)
 Warning -- explicit consideration of  16 degrees of freedom as
           vibrations may cause significant error
 Vibrational temperatures:     37.34    64.32   176.64   261.15   330.39
          (Kelvin)            360.04   432.60   455.44   513.02   544.10
                              624.61   638.04   722.46   800.23   808.93
                              852.07   919.51   999.34  1034.29  1082.93
                             1094.38  1143.24  1199.80  1245.76  1288.21
                             1327.80  1385.95  1433.13  1443.25  1543.12
                             1595.40  1663.39  1763.67  1791.36  1795.61
                             1875.01  1990.93  2039.36  2066.32  2103.23
                             2160.15  2203.79  2273.19  2330.40  3785.88
                             4473.85  4543.18  4575.59  4691.76  4717.72
                             5270.19

 Zero-point correction=                           0.133754 (Hartree/Particle)
 Thermal correction to Energy=                    0.144552
 Thermal correction to Enthalpy=                  0.145496
 Thermal correction to Gibbs Free Energy=         0.094869
 Sum of electronic and zero-point Energies=          -1214.801837
 Sum of electronic and thermal Energies=             -1214.791039
 Sum of electronic and thermal Enthalpies=           -1214.790094
 Sum of electronic and thermal Free Energies=        -1214.840721

                     E (Thermal)             CV                S
                      KCal/Mol        Cal/Mol-Kelvin    Cal/Mol-Kelvin
 Total                   90.708             41.103            106.553
 Electronic               0.000              0.000              1.377
 Translational            0.889              2.981             41.709
 Rotational               0.889              2.981             31.570
 Vibrational             88.930             35.141             31.897
 Vibration     1          0.593              1.985              6.117
 Vibration     2          0.595              1.980              5.039
 Vibration     3          0.610              1.930              3.056
 Vibration     4          0.630              1.865              2.313
 Vibration     5          0.652              1.796              1.882
 Vibration     6          0.663              1.762              1.729
 Vibration     7          0.693              1.672              1.413
 Vibration     8          0.703              1.642              1.328
 Vibration     9          0.732              1.562              1.137
 Vibration    10          0.748              1.517              1.046
 Vibration    11          0.795              1.396              0.845
 Vibration    12          0.803              1.375              0.816
 Vibration    13          0.857              1.245              0.653
 Vibration    14          0.912              1.126              0.532
 Vibration    15          0.918              1.113              0.519
 Vibration    16          0.950              1.048              0.463

 Optimization completed.
    -- Stationary point found.
 Normal termination of Gaussian 16 at Fri May 19 10:13:01 2023.
